LAMMPS data file. CGCMM style. atom_style full generated by VMD/TopoTools v1.5 on Sat Jun 02 16:49:12 IST 2018
 864 atoms
 0 bonds
 0 angles
 0 dihedrals
 0 impropers
 1 atom types
 1 bond types
 0 angle types
 0 dihedral types
 0 improper types
 -0.396500 9.119500  xlo xhi
 -0.396500 9.119500  ylo yhi
 -0.396500 9.119500  zlo zhi

# Pair Coeffs
#
# 1  Ar1

# Bond Coeffs
#
# 1  

 Masses

 1  1.0 # Ar1 39.948002

 Atoms

1	1	1	0	0	0	0	#	Ar1
2	2	1	0	0	0.793	0.793	#	Ar1
3	3	1	0	0.793	0	0.793	#	Ar1
4	4	1	0	0.793	0.793	0	#	Ar1
5	5	1	0	0	0	1.586	#	Ar1
6	6	1	0	0	0	7.93	#	Ar1
7	7	1	0	1.586	0	0	#	Ar1
8	8	1	0	7.93	0	0	#	Ar1
9	9	1	0	0	1.586	0	#	Ar1
10	10	1	0	0	7.93	0	#	Ar1
11	11	1	0	0	0.793	2.379	#	Ar1
12	12	1	0	0	0.793	8.723	#	Ar1
13	13	1	0	1.586	0.793	0.793	#	Ar1
14	14	1	0	7.93	0.793	0.793	#	Ar1
15	15	1	0	0	2.379	0.793	#	Ar1
16	16	1	0	0	8.723	0.793	#	Ar1
17	17	1	0	0.793	0	2.379	#	Ar1
18	18	1	0	0.793	0	8.723	#	Ar1
19	19	1	0	2.379	0	0.793	#	Ar1
20	20	1	0	8.723	0	0.793	#	Ar1
21	21	1	0	0.793	1.586	0.793	#	Ar1
22	22	1	0	0.793	7.93	0.793	#	Ar1
23	23	1	0	0.793	0.793	1.586	#	Ar1
24	24	1	0	0.793	0.793	7.93	#	Ar1
25	25	1	0	2.379	0.793	0	#	Ar1
26	26	1	0	8.723	0.793	0	#	Ar1
27	27	1	0	0.793	2.379	0	#	Ar1
28	28	1	0	0.793	8.723	0	#	Ar1
29	29	1	0	0	0	3.172	#	Ar1
30	30	1	0	0	0	6.344	#	Ar1
31	31	1	0	3.172	0	0	#	Ar1
32	32	1	0	6.344	0	0	#	Ar1
33	33	1	0	0	3.172	0	#	Ar1
34	34	1	0	0	6.344	0	#	Ar1
35	35	1	0	0	0.793	3.965	#	Ar1
36	36	1	0	0	0.793	7.137	#	Ar1
37	37	1	0	3.172	0.793	0.793	#	Ar1
38	38	1	0	6.344	0.793	0.793	#	Ar1
39	39	1	0	0	3.965	0.793	#	Ar1
40	40	1	0	0	7.137	0.793	#	Ar1
41	41	1	0	0.793	0	3.965	#	Ar1
42	42	1	0	0.793	0	7.137	#	Ar1
43	43	1	0	3.965	0	0.793	#	Ar1
44	44	1	0	7.137	0	0.793	#	Ar1
45	45	1	0	0.793	3.172	0.793	#	Ar1
46	46	1	0	0.793	6.344	0.793	#	Ar1
47	47	1	0	0.793	0.793	3.172	#	Ar1
48	48	1	0	0.793	0.793	6.344	#	Ar1
49	49	1	0	3.965	0.793	0	#	Ar1
50	50	1	0	7.137	0.793	0	#	Ar1
51	51	1	0	0.793	3.965	0	#	Ar1
52	52	1	0	0.793	7.137	0	#	Ar1
53	53	1	0	0	0	4.758	#	Ar1
54	54	1	0	4.758	0	0	#	Ar1
55	55	1	0	0	4.758	0	#	Ar1
56	56	1	0	0	0.793	5.551	#	Ar1
57	57	1	0	4.758	0.793	0.793	#	Ar1
58	58	1	0	0	5.551	0.793	#	Ar1
59	59	1	0	0.793	0	5.551	#	Ar1
60	60	1	0	5.551	0	0.793	#	Ar1
61	61	1	0	0.793	4.758	0.793	#	Ar1
62	62	1	0	0.793	0.793	4.758	#	Ar1
63	63	1	0	5.551	0.793	0	#	Ar1
64	64	1	0	0.793	5.551	0	#	Ar1
65	65	1	0	0	1.586	1.586	#	Ar1
66	66	1	0	0	7.93	7.93	#	Ar1
67	67	1	0	0	7.93	1.586	#	Ar1
68	68	1	0	0	1.586	7.93	#	Ar1
69	69	1	0	1.586	0	1.586	#	Ar1
70	70	1	0	7.93	0	7.93	#	Ar1
71	71	1	0	1.586	0	7.93	#	Ar1
72	72	1	0	7.93	0	1.586	#	Ar1
73	73	1	0	1.586	1.586	0	#	Ar1
74	74	1	0	7.93	7.93	0	#	Ar1
75	75	1	0	7.93	1.586	0	#	Ar1
76	76	1	0	1.586	7.93	0	#	Ar1
77	77	1	0	0	2.379	2.379	#	Ar1
78	78	1	0	0	8.723	8.723	#	Ar1
79	79	1	0	0	8.723	2.379	#	Ar1
80	80	1	0	0	2.379	8.723	#	Ar1
81	81	1	0	1.586	0.793	2.379	#	Ar1
82	82	1	0	7.93	0.793	8.723	#	Ar1
83	83	1	0	1.586	0.793	8.723	#	Ar1
84	84	1	0	7.93	0.793	2.379	#	Ar1
85	85	1	0	1.586	2.379	0.793	#	Ar1
86	86	1	0	7.93	8.723	0.793	#	Ar1
87	87	1	0	7.93	2.379	0.793	#	Ar1
88	88	1	0	1.586	8.723	0.793	#	Ar1
89	89	1	0	0.793	1.586	2.379	#	Ar1
90	90	1	0	0.793	7.93	8.723	#	Ar1
91	91	1	0	0.793	7.93	2.379	#	Ar1
92	92	1	0	0.793	1.586	8.723	#	Ar1
93	93	1	0	2.379	0	2.379	#	Ar1
94	94	1	0	8.723	0	8.723	#	Ar1
95	95	1	0	2.379	0	8.723	#	Ar1
96	96	1	0	8.723	0	2.379	#	Ar1
97	97	1	0	2.379	1.586	0.793	#	Ar1
98	98	1	0	8.723	7.93	0.793	#	Ar1
99	99	1	0	8.723	1.586	0.793	#	Ar1
100	100	1	0	2.379	7.93	0.793	#	Ar1
101	101	1	0	0.793	2.379	1.586	#	Ar1
102	102	1	0	0.793	8.723	7.93	#	Ar1
103	103	1	0	0.793	8.723	1.586	#	Ar1
104	104	1	0	0.793	2.379	7.93	#	Ar1
105	105	1	0	2.379	0.793	1.586	#	Ar1
106	106	1	0	8.723	0.793	7.93	#	Ar1
107	107	1	0	2.379	0.793	7.93	#	Ar1
108	108	1	0	8.723	0.793	1.586	#	Ar1
109	109	1	0	2.379	2.379	0	#	Ar1
110	110	1	0	8.723	8.723	0	#	Ar1
111	111	1	0	8.723	2.379	0	#	Ar1
112	112	1	0	2.379	8.723	0	#	Ar1
113	113	1	0	0	1.586	3.172	#	Ar1
114	114	1	0	0	7.93	6.344	#	Ar1
115	115	1	0	0	7.93	3.172	#	Ar1
116	116	1	0	0	1.586	6.344	#	Ar1
117	117	1	0	3.172	0	1.586	#	Ar1
118	118	1	0	6.344	0	7.93	#	Ar1
119	119	1	0	3.172	0	7.93	#	Ar1
120	120	1	0	6.344	0	1.586	#	Ar1
121	121	1	0	1.586	3.172	0	#	Ar1
122	122	1	0	7.93	6.344	0	#	Ar1
123	123	1	0	7.93	3.172	0	#	Ar1
124	124	1	0	1.586	6.344	0	#	Ar1
125	125	1	0	1.586	0	6.344	#	Ar1
126	126	1	0	7.93	0	3.172	#	Ar1
127	127	1	0	7.93	0	6.344	#	Ar1
128	128	1	0	1.586	0	3.172	#	Ar1
129	129	1	0	0	3.172	7.93	#	Ar1
130	130	1	0	0	6.344	1.586	#	Ar1
131	131	1	0	0	3.172	1.586	#	Ar1
132	132	1	0	0	6.344	7.93	#	Ar1
133	133	1	0	3.172	1.586	0	#	Ar1
134	134	1	0	6.344	7.93	0	#	Ar1
135	135	1	0	3.172	7.93	0	#	Ar1
136	136	1	0	6.344	1.586	0	#	Ar1
137	137	1	0	0	2.379	3.965	#	Ar1
138	138	1	0	0	8.723	7.137	#	Ar1
139	139	1	0	0	8.723	3.965	#	Ar1
140	140	1	0	0	2.379	7.137	#	Ar1
141	141	1	0	3.172	0.793	2.379	#	Ar1
142	142	1	0	6.344	0.793	8.723	#	Ar1
143	143	1	0	3.172	0.793	8.723	#	Ar1
144	144	1	0	6.344	0.793	2.379	#	Ar1
145	145	1	0	1.586	3.965	0.793	#	Ar1
146	146	1	0	7.93	7.137	0.793	#	Ar1
147	147	1	0	7.93	3.965	0.793	#	Ar1
148	148	1	0	1.586	7.137	0.793	#	Ar1
149	149	1	0	1.586	0.793	7.137	#	Ar1
150	150	1	0	7.93	0.793	3.965	#	Ar1
151	151	1	0	7.93	0.793	7.137	#	Ar1
152	152	1	0	1.586	0.793	3.965	#	Ar1
153	153	1	0	0	3.965	8.723	#	Ar1
154	154	1	0	0	7.137	2.379	#	Ar1
155	155	1	0	0	3.965	2.379	#	Ar1
156	156	1	0	0	7.137	8.723	#	Ar1
157	157	1	0	3.172	2.379	0.793	#	Ar1
158	158	1	0	6.344	8.723	0.793	#	Ar1
159	159	1	0	3.172	8.723	0.793	#	Ar1
160	160	1	0	6.344	2.379	0.793	#	Ar1
161	161	1	0	0.793	1.586	3.965	#	Ar1
162	162	1	0	0.793	7.93	7.137	#	Ar1
163	163	1	0	0.793	7.93	3.965	#	Ar1
164	164	1	0	0.793	1.586	7.137	#	Ar1
165	165	1	0	3.965	0	2.379	#	Ar1
166	166	1	0	7.137	0	8.723	#	Ar1
167	167	1	0	3.965	0	8.723	#	Ar1
168	168	1	0	7.137	0	2.379	#	Ar1
169	169	1	0	2.379	3.172	0.793	#	Ar1
170	170	1	0	8.723	6.344	0.793	#	Ar1
171	171	1	0	8.723	3.172	0.793	#	Ar1
172	172	1	0	2.379	6.344	0.793	#	Ar1
173	173	1	0	2.379	0	7.137	#	Ar1
174	174	1	0	8.723	0	3.965	#	Ar1
175	175	1	0	8.723	0	7.137	#	Ar1
176	176	1	0	2.379	0	3.965	#	Ar1
177	177	1	0	0.793	3.172	8.723	#	Ar1
178	178	1	0	0.793	6.344	2.379	#	Ar1
179	179	1	0	0.793	3.172	2.379	#	Ar1
180	180	1	0	0.793	6.344	8.723	#	Ar1
181	181	1	0	3.965	1.586	0.793	#	Ar1
182	182	1	0	7.137	7.93	0.793	#	Ar1
183	183	1	0	3.965	7.93	0.793	#	Ar1
184	184	1	0	7.137	1.586	0.793	#	Ar1
185	185	1	0	0.793	2.379	3.172	#	Ar1
186	186	1	0	0.793	8.723	6.344	#	Ar1
187	187	1	0	0.793	8.723	3.172	#	Ar1
188	188	1	0	0.793	2.379	6.344	#	Ar1
189	189	1	0	3.965	0.793	1.586	#	Ar1
190	190	1	0	7.137	0.793	7.93	#	Ar1
191	191	1	0	3.965	0.793	7.93	#	Ar1
192	192	1	0	7.137	0.793	1.586	#	Ar1
193	193	1	0	2.379	3.965	0	#	Ar1
194	194	1	0	8.723	7.137	0	#	Ar1
195	195	1	0	8.723	3.965	0	#	Ar1
196	196	1	0	2.379	7.137	0	#	Ar1
197	197	1	0	2.379	0.793	6.344	#	Ar1
198	198	1	0	8.723	0.793	3.172	#	Ar1
199	199	1	0	8.723	0.793	6.344	#	Ar1
200	200	1	0	2.379	0.793	3.172	#	Ar1
201	201	1	0	0.793	3.965	7.93	#	Ar1
202	202	1	0	0.793	7.137	1.586	#	Ar1
203	203	1	0	0.793	3.965	1.586	#	Ar1
204	204	1	0	0.793	7.137	7.93	#	Ar1
205	205	1	0	3.965	2.379	0	#	Ar1
206	206	1	0	7.137	8.723	0	#	Ar1
207	207	1	0	3.965	8.723	0	#	Ar1
208	208	1	0	7.137	2.379	0	#	Ar1
209	209	1	0	0	1.586	4.758	#	Ar1
210	210	1	0	0	7.93	4.758	#	Ar1
211	211	1	0	4.758	0	1.586	#	Ar1
212	212	1	0	4.758	0	7.93	#	Ar1
213	213	1	0	1.586	4.758	0	#	Ar1
214	214	1	0	7.93	4.758	0	#	Ar1
215	215	1	0	1.586	0	4.758	#	Ar1
216	216	1	0	7.93	0	4.758	#	Ar1
217	217	1	0	0	4.758	7.93	#	Ar1
218	218	1	0	0	4.758	1.586	#	Ar1
219	219	1	0	4.758	1.586	0	#	Ar1
220	220	1	0	4.758	7.93	0	#	Ar1
221	221	1	0	0	2.379	5.551	#	Ar1
222	222	1	0	0	8.723	5.551	#	Ar1
223	223	1	0	4.758	0.793	2.379	#	Ar1
224	224	1	0	4.758	0.793	8.723	#	Ar1
225	225	1	0	1.586	5.551	0.793	#	Ar1
226	226	1	0	7.93	5.551	0.793	#	Ar1
227	227	1	0	1.586	0.793	5.551	#	Ar1
228	228	1	0	7.93	0.793	5.551	#	Ar1
229	229	1	0	0	5.551	8.723	#	Ar1
230	230	1	0	0	5.551	2.379	#	Ar1
231	231	1	0	4.758	2.379	0.793	#	Ar1
232	232	1	0	4.758	8.723	0.793	#	Ar1
233	233	1	0	0.793	1.586	5.551	#	Ar1
234	234	1	0	0.793	7.93	5.551	#	Ar1
235	235	1	0	5.551	0	2.379	#	Ar1
236	236	1	0	5.551	0	8.723	#	Ar1
237	237	1	0	2.379	4.758	0.793	#	Ar1
238	238	1	0	8.723	4.758	0.793	#	Ar1
239	239	1	0	2.379	0	5.551	#	Ar1
240	240	1	0	8.723	0	5.551	#	Ar1
241	241	1	0	0.793	4.758	8.723	#	Ar1
242	242	1	0	0.793	4.758	2.379	#	Ar1
243	243	1	0	5.551	1.586	0.793	#	Ar1
244	244	1	0	5.551	7.93	0.793	#	Ar1
245	245	1	0	0.793	2.379	4.758	#	Ar1
246	246	1	0	0.793	8.723	4.758	#	Ar1
247	247	1	0	5.551	0.793	1.586	#	Ar1
248	248	1	0	5.551	0.793	7.93	#	Ar1
249	249	1	0	2.379	5.551	0	#	Ar1
250	250	1	0	8.723	5.551	0	#	Ar1
251	251	1	0	2.379	0.793	4.758	#	Ar1
252	252	1	0	8.723	0.793	4.758	#	Ar1
253	253	1	0	0.793	5.551	7.93	#	Ar1
254	254	1	0	0.793	5.551	1.586	#	Ar1
255	255	1	0	5.551	2.379	0	#	Ar1
256	256	1	0	5.551	8.723	0	#	Ar1
257	257	1	0	0	3.172	3.172	#	Ar1
258	258	1	0	0	6.344	6.344	#	Ar1
259	259	1	0	0	6.344	3.172	#	Ar1
260	260	1	0	0	3.172	6.344	#	Ar1
261	261	1	0	3.172	0	3.172	#	Ar1
262	262	1	0	6.344	0	6.344	#	Ar1
263	263	1	0	3.172	0	6.344	#	Ar1
264	264	1	0	6.344	0	3.172	#	Ar1
265	265	1	0	3.172	3.172	0	#	Ar1
266	266	1	0	6.344	6.344	0	#	Ar1
267	267	1	0	6.344	3.172	0	#	Ar1
268	268	1	0	3.172	6.344	0	#	Ar1
269	269	1	0	0	3.965	3.965	#	Ar1
270	270	1	0	0	7.137	7.137	#	Ar1
271	271	1	0	0	7.137	3.965	#	Ar1
272	272	1	0	0	3.965	7.137	#	Ar1
273	273	1	0	3.172	0.793	3.965	#	Ar1
274	274	1	0	6.344	0.793	7.137	#	Ar1
275	275	1	0	3.172	0.793	7.137	#	Ar1
276	276	1	0	6.344	0.793	3.965	#	Ar1
277	277	1	0	3.172	3.965	0.793	#	Ar1
278	278	1	0	6.344	7.137	0.793	#	Ar1
279	279	1	0	6.344	3.965	0.793	#	Ar1
280	280	1	0	3.172	7.137	0.793	#	Ar1
281	281	1	0	0.793	3.172	3.965	#	Ar1
282	282	1	0	0.793	6.344	7.137	#	Ar1
283	283	1	0	0.793	6.344	3.965	#	Ar1
284	284	1	0	0.793	3.172	7.137	#	Ar1
285	285	1	0	3.965	0	3.965	#	Ar1
286	286	1	0	7.137	0	7.137	#	Ar1
287	287	1	0	3.965	0	7.137	#	Ar1
288	288	1	0	7.137	0	3.965	#	Ar1
289	289	1	0	3.965	3.172	0.793	#	Ar1
290	290	1	0	7.137	6.344	0.793	#	Ar1
291	291	1	0	7.137	3.172	0.793	#	Ar1
292	292	1	0	3.965	6.344	0.793	#	Ar1
293	293	1	0	0.793	3.965	3.172	#	Ar1
294	294	1	0	0.793	7.137	6.344	#	Ar1
295	295	1	0	0.793	7.137	3.172	#	Ar1
296	296	1	0	0.793	3.965	6.344	#	Ar1
297	297	1	0	3.965	0.793	3.172	#	Ar1
298	298	1	0	7.137	0.793	6.344	#	Ar1
299	299	1	0	3.965	0.793	6.344	#	Ar1
300	300	1	0	7.137	0.793	3.172	#	Ar1
301	301	1	0	3.965	3.965	0	#	Ar1
302	302	1	0	7.137	7.137	0	#	Ar1
303	303	1	0	7.137	3.965	0	#	Ar1
304	304	1	0	3.965	7.137	0	#	Ar1
305	305	1	0	0	3.172	4.758	#	Ar1
306	306	1	0	0	6.344	4.758	#	Ar1
307	307	1	0	4.758	0	3.172	#	Ar1
308	308	1	0	4.758	0	6.344	#	Ar1
309	309	1	0	3.172	4.758	0	#	Ar1
310	310	1	0	6.344	4.758	0	#	Ar1
311	311	1	0	3.172	0	4.758	#	Ar1
312	312	1	0	6.344	0	4.758	#	Ar1
313	313	1	0	0	4.758	6.344	#	Ar1
314	314	1	0	0	4.758	3.172	#	Ar1
315	315	1	0	4.758	3.172	0	#	Ar1
316	316	1	0	4.758	6.344	0	#	Ar1
317	317	1	0	0	3.965	5.551	#	Ar1
318	318	1	0	0	7.137	5.551	#	Ar1
319	319	1	0	4.758	0.793	3.965	#	Ar1
320	320	1	0	4.758	0.793	7.137	#	Ar1
321	321	1	0	3.172	5.551	0.793	#	Ar1
322	322	1	0	6.344	5.551	0.793	#	Ar1
323	323	1	0	3.172	0.793	5.551	#	Ar1
324	324	1	0	6.344	0.793	5.551	#	Ar1
325	325	1	0	0	5.551	7.137	#	Ar1
326	326	1	0	0	5.551	3.965	#	Ar1
327	327	1	0	4.758	3.965	0.793	#	Ar1
328	328	1	0	4.758	7.137	0.793	#	Ar1
329	329	1	0	0.793	3.172	5.551	#	Ar1
330	330	1	0	0.793	6.344	5.551	#	Ar1
331	331	1	0	5.551	0	3.965	#	Ar1
332	332	1	0	5.551	0	7.137	#	Ar1
333	333	1	0	3.965	4.758	0.793	#	Ar1
334	334	1	0	7.137	4.758	0.793	#	Ar1
335	335	1	0	3.965	0	5.551	#	Ar1
336	336	1	0	7.137	0	5.551	#	Ar1
337	337	1	0	0.793	4.758	7.137	#	Ar1
338	338	1	0	0.793	4.758	3.965	#	Ar1
339	339	1	0	5.551	3.172	0.793	#	Ar1
340	340	1	0	5.551	6.344	0.793	#	Ar1
341	341	1	0	0.793	3.965	4.758	#	Ar1
342	342	1	0	0.793	7.137	4.758	#	Ar1
343	343	1	0	5.551	0.793	3.172	#	Ar1
344	344	1	0	5.551	0.793	6.344	#	Ar1
345	345	1	0	3.965	5.551	0	#	Ar1
346	346	1	0	7.137	5.551	0	#	Ar1
347	347	1	0	3.965	0.793	4.758	#	Ar1
348	348	1	0	7.137	0.793	4.758	#	Ar1
349	349	1	0	0.793	5.551	6.344	#	Ar1
350	350	1	0	0.793	5.551	3.172	#	Ar1
351	351	1	0	5.551	3.965	0	#	Ar1
352	352	1	0	5.551	7.137	0	#	Ar1
353	353	1	0	0	4.758	4.758	#	Ar1
354	354	1	0	4.758	0	4.758	#	Ar1
355	355	1	0	4.758	4.758	0	#	Ar1
356	356	1	0	0	5.551	5.551	#	Ar1
357	357	1	0	4.758	0.793	5.551	#	Ar1
358	358	1	0	4.758	5.551	0.793	#	Ar1
359	359	1	0	0.793	4.758	5.551	#	Ar1
360	360	1	0	5.551	0	5.551	#	Ar1
361	361	1	0	5.551	4.758	0.793	#	Ar1
362	362	1	0	0.793	5.551	4.758	#	Ar1
363	363	1	0	5.551	0.793	4.758	#	Ar1
364	364	1	0	5.551	5.551	0	#	Ar1
365	365	1	0	1.586	1.586	1.586	#	Ar1
366	366	1	0	7.93	7.93	7.93	#	Ar1
367	367	1	0	7.93	7.93	1.586	#	Ar1
368	368	1	0	1.586	1.586	7.93	#	Ar1
369	369	1	0	7.93	1.586	7.93	#	Ar1
370	370	1	0	1.586	7.93	1.586	#	Ar1
371	371	1	0	1.586	7.93	7.93	#	Ar1
372	372	1	0	7.93	1.586	1.586	#	Ar1
373	373	1	0	1.586	2.379	2.379	#	Ar1
374	374	1	0	7.93	8.723	8.723	#	Ar1
375	375	1	0	7.93	8.723	2.379	#	Ar1
376	376	1	0	1.586	2.379	8.723	#	Ar1
377	377	1	0	7.93	2.379	8.723	#	Ar1
378	378	1	0	1.586	8.723	2.379	#	Ar1
379	379	1	0	1.586	8.723	8.723	#	Ar1
380	380	1	0	7.93	2.379	2.379	#	Ar1
381	381	1	0	2.379	1.586	2.379	#	Ar1
382	382	1	0	8.723	7.93	8.723	#	Ar1
383	383	1	0	8.723	7.93	2.379	#	Ar1
384	384	1	0	2.379	1.586	8.723	#	Ar1
385	385	1	0	8.723	1.586	8.723	#	Ar1
386	386	1	0	2.379	7.93	2.379	#	Ar1
387	387	1	0	2.379	7.93	8.723	#	Ar1
388	388	1	0	8.723	1.586	2.379	#	Ar1
389	389	1	0	2.379	2.379	1.586	#	Ar1
390	390	1	0	8.723	8.723	7.93	#	Ar1
391	391	1	0	8.723	8.723	1.586	#	Ar1
392	392	1	0	2.379	2.379	7.93	#	Ar1
393	393	1	0	8.723	2.379	7.93	#	Ar1
394	394	1	0	2.379	8.723	1.586	#	Ar1
395	395	1	0	2.379	8.723	7.93	#	Ar1
396	396	1	0	8.723	2.379	1.586	#	Ar1
397	397	1	0	1.586	1.586	3.172	#	Ar1
398	398	1	0	7.93	7.93	6.344	#	Ar1
399	399	1	0	7.93	7.93	3.172	#	Ar1
400	400	1	0	1.586	1.586	6.344	#	Ar1
401	401	1	0	7.93	1.586	6.344	#	Ar1
402	402	1	0	1.586	7.93	3.172	#	Ar1
403	403	1	0	1.586	7.93	6.344	#	Ar1
404	404	1	0	7.93	1.586	3.172	#	Ar1
405	405	1	0	3.172	1.586	1.586	#	Ar1
406	406	1	0	6.344	7.93	7.93	#	Ar1
407	407	1	0	3.172	7.93	7.93	#	Ar1
408	408	1	0	6.344	1.586	1.586	#	Ar1
409	409	1	0	6.344	7.93	1.586	#	Ar1
410	410	1	0	3.172	1.586	7.93	#	Ar1
411	411	1	0	6.344	1.586	7.93	#	Ar1
412	412	1	0	3.172	7.93	1.586	#	Ar1
413	413	1	0	1.586	3.172	1.586	#	Ar1
414	414	1	0	7.93	6.344	7.93	#	Ar1
415	415	1	0	7.93	3.172	7.93	#	Ar1
416	416	1	0	1.586	6.344	1.586	#	Ar1
417	417	1	0	1.586	6.344	7.93	#	Ar1
418	418	1	0	7.93	3.172	1.586	#	Ar1
419	419	1	0	7.93	6.344	1.586	#	Ar1
420	420	1	0	1.586	3.172	7.93	#	Ar1
421	421	1	0	1.586	2.379	3.965	#	Ar1
422	422	1	0	7.93	8.723	7.137	#	Ar1
423	423	1	0	7.93	8.723	3.965	#	Ar1
424	424	1	0	1.586	2.379	7.137	#	Ar1
425	425	1	0	7.93	2.379	7.137	#	Ar1
426	426	1	0	1.586	8.723	3.965	#	Ar1
427	427	1	0	1.586	8.723	7.137	#	Ar1
428	428	1	0	7.93	2.379	3.965	#	Ar1
429	429	1	0	3.172	2.379	2.379	#	Ar1
430	430	1	0	6.344	8.723	8.723	#	Ar1
431	431	1	0	3.172	8.723	8.723	#	Ar1
432	432	1	0	6.344	2.379	2.379	#	Ar1
433	433	1	0	6.344	8.723	2.379	#	Ar1
434	434	1	0	3.172	2.379	8.723	#	Ar1
435	435	1	0	6.344	2.379	8.723	#	Ar1
436	436	1	0	3.172	8.723	2.379	#	Ar1
437	437	1	0	1.586	3.965	2.379	#	Ar1
438	438	1	0	7.93	7.137	8.723	#	Ar1
439	439	1	0	7.93	3.965	8.723	#	Ar1
440	440	1	0	1.586	7.137	2.379	#	Ar1
441	441	1	0	1.586	7.137	8.723	#	Ar1
442	442	1	0	7.93	3.965	2.379	#	Ar1
443	443	1	0	7.93	7.137	2.379	#	Ar1
444	444	1	0	1.586	3.965	8.723	#	Ar1
445	445	1	0	2.379	1.586	3.965	#	Ar1
446	446	1	0	8.723	7.93	7.137	#	Ar1
447	447	1	0	8.723	7.93	3.965	#	Ar1
448	448	1	0	2.379	1.586	7.137	#	Ar1
449	449	1	0	8.723	1.586	7.137	#	Ar1
450	450	1	0	2.379	7.93	3.965	#	Ar1
451	451	1	0	2.379	7.93	7.137	#	Ar1
452	452	1	0	8.723	1.586	3.965	#	Ar1
453	453	1	0	3.965	1.586	2.379	#	Ar1
454	454	1	0	7.137	7.93	8.723	#	Ar1
455	455	1	0	3.965	7.93	8.723	#	Ar1
456	456	1	0	7.137	1.586	2.379	#	Ar1
457	457	1	0	7.137	7.93	2.379	#	Ar1
458	458	1	0	3.965	1.586	8.723	#	Ar1
459	459	1	0	7.137	1.586	8.723	#	Ar1
460	460	1	0	3.965	7.93	2.379	#	Ar1
461	461	1	0	2.379	3.172	2.379	#	Ar1
462	462	1	0	8.723	6.344	8.723	#	Ar1
463	463	1	0	8.723	3.172	8.723	#	Ar1
464	464	1	0	2.379	6.344	2.379	#	Ar1
465	465	1	0	2.379	6.344	8.723	#	Ar1
466	466	1	0	8.723	3.172	2.379	#	Ar1
467	467	1	0	8.723	6.344	2.379	#	Ar1
468	468	1	0	2.379	3.172	8.723	#	Ar1
469	469	1	0	2.379	2.379	3.172	#	Ar1
470	470	1	0	8.723	8.723	6.344	#	Ar1
471	471	1	0	8.723	8.723	3.172	#	Ar1
472	472	1	0	2.379	2.379	6.344	#	Ar1
473	473	1	0	8.723	2.379	6.344	#	Ar1
474	474	1	0	2.379	8.723	3.172	#	Ar1
475	475	1	0	2.379	8.723	6.344	#	Ar1
476	476	1	0	8.723	2.379	3.172	#	Ar1
477	477	1	0	3.965	2.379	1.586	#	Ar1
478	478	1	0	7.137	8.723	7.93	#	Ar1
479	479	1	0	3.965	8.723	7.93	#	Ar1
480	480	1	0	7.137	2.379	1.586	#	Ar1
481	481	1	0	7.137	8.723	1.586	#	Ar1
482	482	1	0	3.965	2.379	7.93	#	Ar1
483	483	1	0	7.137	2.379	7.93	#	Ar1
484	484	1	0	3.965	8.723	1.586	#	Ar1
485	485	1	0	2.379	3.965	1.586	#	Ar1
486	486	1	0	8.723	7.137	7.93	#	Ar1
487	487	1	0	8.723	3.965	7.93	#	Ar1
488	488	1	0	2.379	7.137	1.586	#	Ar1
489	489	1	0	2.379	7.137	7.93	#	Ar1
490	490	1	0	8.723	3.965	1.586	#	Ar1
491	491	1	0	8.723	7.137	1.586	#	Ar1
492	492	1	0	2.379	3.965	7.93	#	Ar1
493	493	1	0	1.586	1.586	4.758	#	Ar1
494	494	1	0	7.93	7.93	4.758	#	Ar1
495	495	1	0	7.93	1.586	4.758	#	Ar1
496	496	1	0	1.586	7.93	4.758	#	Ar1
497	497	1	0	4.758	1.586	1.586	#	Ar1
498	498	1	0	4.758	7.93	7.93	#	Ar1
499	499	1	0	4.758	7.93	1.586	#	Ar1
500	500	1	0	4.758	1.586	7.93	#	Ar1
501	501	1	0	1.586	4.758	1.586	#	Ar1
502	502	1	0	7.93	4.758	7.93	#	Ar1
503	503	1	0	1.586	4.758	7.93	#	Ar1
504	504	1	0	7.93	4.758	1.586	#	Ar1
505	505	1	0	1.586	2.379	5.551	#	Ar1
506	506	1	0	7.93	8.723	5.551	#	Ar1
507	507	1	0	7.93	2.379	5.551	#	Ar1
508	508	1	0	1.586	8.723	5.551	#	Ar1
509	509	1	0	4.758	2.379	2.379	#	Ar1
510	510	1	0	4.758	8.723	8.723	#	Ar1
511	511	1	0	4.758	8.723	2.379	#	Ar1
512	512	1	0	4.758	2.379	8.723	#	Ar1
513	513	1	0	1.586	5.551	2.379	#	Ar1
514	514	1	0	7.93	5.551	8.723	#	Ar1
515	515	1	0	1.586	5.551	8.723	#	Ar1
516	516	1	0	7.93	5.551	2.379	#	Ar1
517	517	1	0	2.379	1.586	5.551	#	Ar1
518	518	1	0	8.723	7.93	5.551	#	Ar1
519	519	1	0	8.723	1.586	5.551	#	Ar1
520	520	1	0	2.379	7.93	5.551	#	Ar1
521	521	1	0	5.551	1.586	2.379	#	Ar1
522	522	1	0	5.551	7.93	8.723	#	Ar1
523	523	1	0	5.551	7.93	2.379	#	Ar1
524	524	1	0	5.551	1.586	8.723	#	Ar1
525	525	1	0	2.379	4.758	2.379	#	Ar1
526	526	1	0	8.723	4.758	8.723	#	Ar1
527	527	1	0	2.379	4.758	8.723	#	Ar1
528	528	1	0	8.723	4.758	2.379	#	Ar1
529	529	1	0	2.379	2.379	4.758	#	Ar1
530	530	1	0	8.723	8.723	4.758	#	Ar1
531	531	1	0	8.723	2.379	4.758	#	Ar1
532	532	1	0	2.379	8.723	4.758	#	Ar1
533	533	1	0	5.551	2.379	1.586	#	Ar1
534	534	1	0	5.551	8.723	7.93	#	Ar1
535	535	1	0	5.551	8.723	1.586	#	Ar1
536	536	1	0	5.551	2.379	7.93	#	Ar1
537	537	1	0	2.379	5.551	1.586	#	Ar1
538	538	1	0	8.723	5.551	7.93	#	Ar1
539	539	1	0	2.379	5.551	7.93	#	Ar1
540	540	1	0	8.723	5.551	1.586	#	Ar1
541	541	1	0	1.586	3.172	3.172	#	Ar1
542	542	1	0	7.93	6.344	6.344	#	Ar1
543	543	1	0	7.93	6.344	3.172	#	Ar1
544	544	1	0	1.586	3.172	6.344	#	Ar1
545	545	1	0	7.93	3.172	6.344	#	Ar1
546	546	1	0	1.586	6.344	3.172	#	Ar1
547	547	1	0	1.586	6.344	6.344	#	Ar1
548	548	1	0	7.93	3.172	3.172	#	Ar1
549	549	1	0	3.172	1.586	3.172	#	Ar1
550	550	1	0	6.344	7.93	6.344	#	Ar1
551	551	1	0	3.172	7.93	6.344	#	Ar1
552	552	1	0	6.344	1.586	3.172	#	Ar1
553	553	1	0	6.344	7.93	3.172	#	Ar1
554	554	1	0	3.172	1.586	6.344	#	Ar1
555	555	1	0	6.344	1.586	6.344	#	Ar1
556	556	1	0	3.172	7.93	3.172	#	Ar1
557	557	1	0	3.172	3.172	1.586	#	Ar1
558	558	1	0	6.344	6.344	7.93	#	Ar1
559	559	1	0	6.344	3.172	7.93	#	Ar1
560	560	1	0	3.172	6.344	1.586	#	Ar1
561	561	1	0	3.172	6.344	7.93	#	Ar1
562	562	1	0	6.344	3.172	1.586	#	Ar1
563	563	1	0	6.344	6.344	1.586	#	Ar1
564	564	1	0	3.172	3.172	7.93	#	Ar1
565	565	1	0	1.586	3.965	3.965	#	Ar1
566	566	1	0	7.93	7.137	7.137	#	Ar1
567	567	1	0	7.93	7.137	3.965	#	Ar1
568	568	1	0	1.586	3.965	7.137	#	Ar1
569	569	1	0	7.93	3.965	7.137	#	Ar1
570	570	1	0	1.586	7.137	3.965	#	Ar1
571	571	1	0	1.586	7.137	7.137	#	Ar1
572	572	1	0	7.93	3.965	3.965	#	Ar1
573	573	1	0	3.172	2.379	3.965	#	Ar1
574	574	1	0	6.344	8.723	7.137	#	Ar1
575	575	1	0	3.172	8.723	7.137	#	Ar1
576	576	1	0	6.344	2.379	3.965	#	Ar1
577	577	1	0	6.344	8.723	3.965	#	Ar1
578	578	1	0	3.172	2.379	7.137	#	Ar1
579	579	1	0	6.344	2.379	7.137	#	Ar1
580	580	1	0	3.172	8.723	3.965	#	Ar1
581	581	1	0	3.172	3.965	2.379	#	Ar1
582	582	1	0	6.344	7.137	8.723	#	Ar1
583	583	1	0	6.344	3.965	8.723	#	Ar1
584	584	1	0	3.172	7.137	2.379	#	Ar1
585	585	1	0	3.172	7.137	8.723	#	Ar1
586	586	1	0	6.344	3.965	2.379	#	Ar1
587	587	1	0	6.344	7.137	2.379	#	Ar1
588	588	1	0	3.172	3.965	8.723	#	Ar1
589	589	1	0	2.379	3.172	3.965	#	Ar1
590	590	1	0	8.723	6.344	7.137	#	Ar1
591	591	1	0	8.723	6.344	3.965	#	Ar1
592	592	1	0	2.379	3.172	7.137	#	Ar1
593	593	1	0	8.723	3.172	7.137	#	Ar1
594	594	1	0	2.379	6.344	3.965	#	Ar1
595	595	1	0	2.379	6.344	7.137	#	Ar1
596	596	1	0	8.723	3.172	3.965	#	Ar1
597	597	1	0	3.965	1.586	3.965	#	Ar1
598	598	1	0	7.137	7.93	7.137	#	Ar1
599	599	1	0	3.965	7.93	7.137	#	Ar1
600	600	1	0	7.137	1.586	3.965	#	Ar1
601	601	1	0	7.137	7.93	3.965	#	Ar1
602	602	1	0	3.965	1.586	7.137	#	Ar1
603	603	1	0	7.137	1.586	7.137	#	Ar1
604	604	1	0	3.965	7.93	3.965	#	Ar1
605	605	1	0	3.965	3.172	2.379	#	Ar1
606	606	1	0	7.137	6.344	8.723	#	Ar1
607	607	1	0	7.137	3.172	8.723	#	Ar1
608	608	1	0	3.965	6.344	2.379	#	Ar1
609	609	1	0	3.965	6.344	8.723	#	Ar1
610	610	1	0	7.137	3.172	2.379	#	Ar1
611	611	1	0	7.137	6.344	2.379	#	Ar1
612	612	1	0	3.965	3.172	8.723	#	Ar1
613	613	1	0	2.379	3.965	3.172	#	Ar1
614	614	1	0	8.723	7.137	6.344	#	Ar1
615	615	1	0	8.723	7.137	3.172	#	Ar1
616	616	1	0	2.379	3.965	6.344	#	Ar1
617	617	1	0	8.723	3.965	6.344	#	Ar1
618	618	1	0	2.379	7.137	3.172	#	Ar1
619	619	1	0	2.379	7.137	6.344	#	Ar1
620	620	1	0	8.723	3.965	3.172	#	Ar1
621	621	1	0	3.965	2.379	3.172	#	Ar1
622	622	1	0	7.137	8.723	6.344	#	Ar1
623	623	1	0	3.965	8.723	6.344	#	Ar1
624	624	1	0	7.137	2.379	3.172	#	Ar1
625	625	1	0	7.137	8.723	3.172	#	Ar1
626	626	1	0	3.965	2.379	6.344	#	Ar1
627	627	1	0	7.137	2.379	6.344	#	Ar1
628	628	1	0	3.965	8.723	3.172	#	Ar1
629	629	1	0	3.965	3.965	1.586	#	Ar1
630	630	1	0	7.137	7.137	7.93	#	Ar1
631	631	1	0	7.137	3.965	7.93	#	Ar1
632	632	1	0	3.965	7.137	1.586	#	Ar1
633	633	1	0	3.965	7.137	7.93	#	Ar1
634	634	1	0	7.137	3.965	1.586	#	Ar1
635	635	1	0	7.137	7.137	1.586	#	Ar1
636	636	1	0	3.965	3.965	7.93	#	Ar1
637	637	1	0	1.586	3.172	4.758	#	Ar1
638	638	1	0	7.93	6.344	4.758	#	Ar1
639	639	1	0	7.93	3.172	4.758	#	Ar1
640	640	1	0	1.586	6.344	4.758	#	Ar1
641	641	1	0	4.758	1.586	3.172	#	Ar1
642	642	1	0	4.758	7.93	6.344	#	Ar1
643	643	1	0	4.758	7.93	3.172	#	Ar1
644	644	1	0	4.758	1.586	6.344	#	Ar1
645	645	1	0	3.172	4.758	1.586	#	Ar1
646	646	1	0	6.344	4.758	7.93	#	Ar1
647	647	1	0	3.172	4.758	7.93	#	Ar1
648	648	1	0	6.344	4.758	1.586	#	Ar1
649	649	1	0	3.172	1.586	4.758	#	Ar1
650	650	1	0	6.344	7.93	4.758	#	Ar1
651	651	1	0	3.172	7.93	4.758	#	Ar1
652	652	1	0	6.344	1.586	4.758	#	Ar1
653	653	1	0	1.586	4.758	6.344	#	Ar1
654	654	1	0	7.93	4.758	3.172	#	Ar1
655	655	1	0	7.93	4.758	6.344	#	Ar1
656	656	1	0	1.586	4.758	3.172	#	Ar1
657	657	1	0	4.758	3.172	7.93	#	Ar1
658	658	1	0	4.758	6.344	1.586	#	Ar1
659	659	1	0	4.758	3.172	1.586	#	Ar1
660	660	1	0	4.758	6.344	7.93	#	Ar1
661	661	1	0	1.586	3.965	5.551	#	Ar1
662	662	1	0	7.93	7.137	5.551	#	Ar1
663	663	1	0	7.93	3.965	5.551	#	Ar1
664	664	1	0	1.586	7.137	5.551	#	Ar1
665	665	1	0	4.758	2.379	3.965	#	Ar1
666	666	1	0	4.758	8.723	7.137	#	Ar1
667	667	1	0	4.758	8.723	3.965	#	Ar1
668	668	1	0	4.758	2.379	7.137	#	Ar1
669	669	1	0	3.172	5.551	2.379	#	Ar1
670	670	1	0	6.344	5.551	8.723	#	Ar1
671	671	1	0	3.172	5.551	8.723	#	Ar1
672	672	1	0	6.344	5.551	2.379	#	Ar1
673	673	1	0	3.172	2.379	5.551	#	Ar1
674	674	1	0	6.344	8.723	5.551	#	Ar1
675	675	1	0	3.172	8.723	5.551	#	Ar1
676	676	1	0	6.344	2.379	5.551	#	Ar1
677	677	1	0	1.586	5.551	7.137	#	Ar1
678	678	1	0	7.93	5.551	3.965	#	Ar1
679	679	1	0	7.93	5.551	7.137	#	Ar1
680	680	1	0	1.586	5.551	3.965	#	Ar1
681	681	1	0	4.758	3.965	8.723	#	Ar1
682	682	1	0	4.758	7.137	2.379	#	Ar1
683	683	1	0	4.758	3.965	2.379	#	Ar1
684	684	1	0	4.758	7.137	8.723	#	Ar1
685	685	1	0	2.379	3.172	5.551	#	Ar1
686	686	1	0	8.723	6.344	5.551	#	Ar1
687	687	1	0	8.723	3.172	5.551	#	Ar1
688	688	1	0	2.379	6.344	5.551	#	Ar1
689	689	1	0	5.551	1.586	3.965	#	Ar1
690	690	1	0	5.551	7.93	7.137	#	Ar1
691	691	1	0	5.551	7.93	3.965	#	Ar1
692	692	1	0	5.551	1.586	7.137	#	Ar1
693	693	1	0	3.965	4.758	2.379	#	Ar1
694	694	1	0	7.137	4.758	8.723	#	Ar1
695	695	1	0	3.965	4.758	8.723	#	Ar1
696	696	1	0	7.137	4.758	2.379	#	Ar1
697	697	1	0	3.965	1.586	5.551	#	Ar1
698	698	1	0	7.137	7.93	5.551	#	Ar1
699	699	1	0	3.965	7.93	5.551	#	Ar1
700	700	1	0	7.137	1.586	5.551	#	Ar1
701	701	1	0	2.379	4.758	7.137	#	Ar1
702	702	1	0	8.723	4.758	3.965	#	Ar1
703	703	1	0	8.723	4.758	7.137	#	Ar1
704	704	1	0	2.379	4.758	3.965	#	Ar1
705	705	1	0	5.551	3.172	8.723	#	Ar1
706	706	1	0	5.551	6.344	2.379	#	Ar1
707	707	1	0	5.551	3.172	2.379	#	Ar1
708	708	1	0	5.551	6.344	8.723	#	Ar1
709	709	1	0	2.379	3.965	4.758	#	Ar1
710	710	1	0	8.723	7.137	4.758	#	Ar1
711	711	1	0	8.723	3.965	4.758	#	Ar1
712	712	1	0	2.379	7.137	4.758	#	Ar1
713	713	1	0	5.551	2.379	3.172	#	Ar1
714	714	1	0	5.551	8.723	6.344	#	Ar1
715	715	1	0	5.551	8.723	3.172	#	Ar1
716	716	1	0	5.551	2.379	6.344	#	Ar1
717	717	1	0	3.965	5.551	1.586	#	Ar1
718	718	1	0	7.137	5.551	7.93	#	Ar1
719	719	1	0	3.965	5.551	7.93	#	Ar1
720	720	1	0	7.137	5.551	1.586	#	Ar1
721	721	1	0	3.965	2.379	4.758	#	Ar1
722	722	1	0	7.137	8.723	4.758	#	Ar1
723	723	1	0	3.965	8.723	4.758	#	Ar1
724	724	1	0	7.137	2.379	4.758	#	Ar1
725	725	1	0	2.379	5.551	6.344	#	Ar1
726	726	1	0	8.723	5.551	3.172	#	Ar1
727	727	1	0	8.723	5.551	6.344	#	Ar1
728	728	1	0	2.379	5.551	3.172	#	Ar1
729	729	1	0	5.551	3.965	7.93	#	Ar1
730	730	1	0	5.551	7.137	1.586	#	Ar1
731	731	1	0	5.551	3.965	1.586	#	Ar1
732	732	1	0	5.551	7.137	7.93	#	Ar1
733	733	1	0	1.586	4.758	4.758	#	Ar1
734	734	1	0	7.93	4.758	4.758	#	Ar1
735	735	1	0	4.758	1.586	4.758	#	Ar1
736	736	1	0	4.758	7.93	4.758	#	Ar1
737	737	1	0	4.758	4.758	1.586	#	Ar1
738	738	1	0	4.758	4.758	7.93	#	Ar1
739	739	1	0	1.586	5.551	5.551	#	Ar1
740	740	1	0	7.93	5.551	5.551	#	Ar1
741	741	1	0	4.758	2.379	5.551	#	Ar1
742	742	1	0	4.758	8.723	5.551	#	Ar1
743	743	1	0	4.758	5.551	2.379	#	Ar1
744	744	1	0	4.758	5.551	8.723	#	Ar1
745	745	1	0	2.379	4.758	5.551	#	Ar1
746	746	1	0	8.723	4.758	5.551	#	Ar1
747	747	1	0	5.551	1.586	5.551	#	Ar1
748	748	1	0	5.551	7.93	5.551	#	Ar1
749	749	1	0	5.551	4.758	2.379	#	Ar1
750	750	1	0	5.551	4.758	8.723	#	Ar1
751	751	1	0	2.379	5.551	4.758	#	Ar1
752	752	1	0	8.723	5.551	4.758	#	Ar1
753	753	1	0	5.551	2.379	4.758	#	Ar1
754	754	1	0	5.551	8.723	4.758	#	Ar1
755	755	1	0	5.551	5.551	1.586	#	Ar1
756	756	1	0	5.551	5.551	7.93	#	Ar1
757	757	1	0	3.172	3.172	3.172	#	Ar1
758	758	1	0	6.344	6.344	6.344	#	Ar1
759	759	1	0	6.344	6.344	3.172	#	Ar1
760	760	1	0	3.172	3.172	6.344	#	Ar1
761	761	1	0	6.344	3.172	6.344	#	Ar1
762	762	1	0	3.172	6.344	3.172	#	Ar1
763	763	1	0	3.172	6.344	6.344	#	Ar1
764	764	1	0	6.344	3.172	3.172	#	Ar1
765	765	1	0	3.172	3.965	3.965	#	Ar1
766	766	1	0	6.344	7.137	7.137	#	Ar1
767	767	1	0	6.344	7.137	3.965	#	Ar1
768	768	1	0	3.172	3.965	7.137	#	Ar1
769	769	1	0	6.344	3.965	7.137	#	Ar1
770	770	1	0	3.172	7.137	3.965	#	Ar1
771	771	1	0	3.172	7.137	7.137	#	Ar1
772	772	1	0	6.344	3.965	3.965	#	Ar1
773	773	1	0	3.965	3.172	3.965	#	Ar1
774	774	1	0	7.137	6.344	7.137	#	Ar1
775	775	1	0	7.137	6.344	3.965	#	Ar1
776	776	1	0	3.965	3.172	7.137	#	Ar1
777	777	1	0	7.137	3.172	7.137	#	Ar1
778	778	1	0	3.965	6.344	3.965	#	Ar1
779	779	1	0	3.965	6.344	7.137	#	Ar1
780	780	1	0	7.137	3.172	3.965	#	Ar1
781	781	1	0	3.965	3.965	3.172	#	Ar1
782	782	1	0	7.137	7.137	6.344	#	Ar1
783	783	1	0	7.137	7.137	3.172	#	Ar1
784	784	1	0	3.965	3.965	6.344	#	Ar1
785	785	1	0	7.137	3.965	6.344	#	Ar1
786	786	1	0	3.965	7.137	3.172	#	Ar1
787	787	1	0	3.965	7.137	6.344	#	Ar1
788	788	1	0	7.137	3.965	3.172	#	Ar1
789	789	1	0	3.172	3.172	4.758	#	Ar1
790	790	1	0	6.344	6.344	4.758	#	Ar1
791	791	1	0	6.344	3.172	4.758	#	Ar1
792	792	1	0	3.172	6.344	4.758	#	Ar1
793	793	1	0	4.758	3.172	3.172	#	Ar1
794	794	1	0	4.758	6.344	6.344	#	Ar1
795	795	1	0	4.758	6.344	3.172	#	Ar1
796	796	1	0	4.758	3.172	6.344	#	Ar1
797	797	1	0	3.172	4.758	3.172	#	Ar1
798	798	1	0	6.344	4.758	6.344	#	Ar1
799	799	1	0	3.172	4.758	6.344	#	Ar1
800	800	1	0	6.344	4.758	3.172	#	Ar1
801	801	1	0	3.172	3.965	5.551	#	Ar1
802	802	1	0	6.344	7.137	5.551	#	Ar1
803	803	1	0	6.344	3.965	5.551	#	Ar1
804	804	1	0	3.172	7.137	5.551	#	Ar1
805	805	1	0	4.758	3.965	3.965	#	Ar1
806	806	1	0	4.758	7.137	7.137	#	Ar1
807	807	1	0	4.758	7.137	3.965	#	Ar1
808	808	1	0	4.758	3.965	7.137	#	Ar1
809	809	1	0	3.172	5.551	3.965	#	Ar1
810	810	1	0	6.344	5.551	7.137	#	Ar1
811	811	1	0	3.172	5.551	7.137	#	Ar1
812	812	1	0	6.344	5.551	3.965	#	Ar1
813	813	1	0	3.965	3.172	5.551	#	Ar1
814	814	1	0	7.137	6.344	5.551	#	Ar1
815	815	1	0	7.137	3.172	5.551	#	Ar1
816	816	1	0	3.965	6.344	5.551	#	Ar1
817	817	1	0	5.551	3.172	3.965	#	Ar1
818	818	1	0	5.551	6.344	7.137	#	Ar1
819	819	1	0	5.551	6.344	3.965	#	Ar1
820	820	1	0	5.551	3.172	7.137	#	Ar1
821	821	1	0	3.965	4.758	3.965	#	Ar1
822	822	1	0	7.137	4.758	7.137	#	Ar1
823	823	1	0	3.965	4.758	7.137	#	Ar1
824	824	1	0	7.137	4.758	3.965	#	Ar1
825	825	1	0	3.965	3.965	4.758	#	Ar1
826	826	1	0	7.137	7.137	4.758	#	Ar1
827	827	1	0	7.137	3.965	4.758	#	Ar1
828	828	1	0	3.965	7.137	4.758	#	Ar1
829	829	1	0	5.551	3.965	3.172	#	Ar1
830	830	1	0	5.551	7.137	6.344	#	Ar1
831	831	1	0	5.551	7.137	3.172	#	Ar1
832	832	1	0	5.551	3.965	6.344	#	Ar1
833	833	1	0	3.965	5.551	3.172	#	Ar1
834	834	1	0	7.137	5.551	6.344	#	Ar1
835	835	1	0	3.965	5.551	6.344	#	Ar1
836	836	1	0	7.137	5.551	3.172	#	Ar1
837	837	1	0	3.172	4.758	4.758	#	Ar1
838	838	1	0	6.344	4.758	4.758	#	Ar1
839	839	1	0	4.758	3.172	4.758	#	Ar1
840	840	1	0	4.758	6.344	4.758	#	Ar1
841	841	1	0	4.758	4.758	3.172	#	Ar1
842	842	1	0	4.758	4.758	6.344	#	Ar1
843	843	1	0	3.172	5.551	5.551	#	Ar1
844	844	1	0	6.344	5.551	5.551	#	Ar1
845	845	1	0	4.758	3.965	5.551	#	Ar1
846	846	1	0	4.758	7.137	5.551	#	Ar1
847	847	1	0	4.758	5.551	3.965	#	Ar1
848	848	1	0	4.758	5.551	7.137	#	Ar1
849	849	1	0	3.965	4.758	5.551	#	Ar1
850	850	1	0	7.137	4.758	5.551	#	Ar1
851	851	1	0	5.551	3.172	5.551	#	Ar1
852	852	1	0	5.551	6.344	5.551	#	Ar1
853	853	1	0	5.551	4.758	3.965	#	Ar1
854	854	1	0	5.551	4.758	7.137	#	Ar1
855	855	1	0	3.965	5.551	4.758	#	Ar1
856	856	1	0	7.137	5.551	4.758	#	Ar1
857	857	1	0	5.551	3.965	4.758	#	Ar1