ITEM: TIMESTEP
0
ITEM: NUMBER OF ATOMS
432
ITEM: BOX BOUNDS pp pp pp
-0.3965 9.1195
-0.3965 9.1195
-0.3965 9.1195
ITEM: ATOMS id mol type x y z 
1 1 1 0 0 0 
2 2 1 0.793 0.793 0.793 
3 3 1 0 0 1.586 
4 4 1 0 0 7.93 
5 5 1 1.586 0 0 
6 6 1 7.93 0 0 
7 7 1 0 1.586 0 
8 8 1 0 7.93 0 
9 9 1 0.793 0.793 2.379 
10 10 1 0.793 0.793 8.723 
11 11 1 2.379 0.793 0.793 
12 12 1 8.723 0.793 0.793 
13 13 1 0.793 2.379 0.793 
14 14 1 0.793 8.723 0.793 
15 15 1 0 0 3.172 
16 16 1 0 0 6.344 
17 17 1 3.172 0 0 
18 18 1 6.344 0 0 
19 19 1 0 3.172 0 
20 20 1 0 6.344 0 
21 21 1 0.793 0.793 3.965 
22 22 1 0.793 0.793 7.137 
23 23 1 3.965 0.793 0.793 
24 24 1 7.137 0.793 0.793 
25 25 1 0.793 3.965 0.793 
26 26 1 0.793 7.137 0.793 
27 27 1 0 0 4.758 
28 28 1 4.758 0 0 
29 29 1 0 4.758 0 
30 30 1 0.793 0.793 5.551 
31 31 1 5.551 0.793 0.793 
32 32 1 0.793 5.551 0.793 
33 33 1 0 1.586 1.586 
34 34 1 0 7.93 7.93 
35 35 1 0 7.93 1.586 
36 36 1 0 1.586 7.93 
37 37 1 1.586 0 1.586 
38 38 1 7.93 0 7.93 
39 39 1 1.586 0 7.93 
40 40 1 7.93 0 1.586 
41 41 1 1.586 1.586 0 
42 42 1 7.93 7.93 0 
43 43 1 7.93 1.586 0 
44 44 1 1.586 7.93 0 
45 45 1 0.793 2.379 2.379 
46 46 1 0.793 8.723 8.723 
47 47 1 0.793 8.723 2.379 
48 48 1 0.793 2.379 8.723 
49 49 1 2.379 0.793 2.379 
50 50 1 8.723 0.793 8.723 
51 51 1 2.379 0.793 8.723 
52 52 1 8.723 0.793 2.379 
53 53 1 2.379 2.379 0.793 
54 54 1 8.723 8.723 0.793 
55 55 1 8.723 2.379 0.793 
56 56 1 2.379 8.723 0.793 
57 57 1 0 1.586 3.172 
58 58 1 0 7.93 6.344 
59 59 1 0 7.93 3.172 
60 60 1 0 1.586 6.344 
61 61 1 3.172 0 1.586 
62 62 1 6.344 0 7.93 
63 63 1 3.172 0 7.93 
64 64 1 6.344 0 1.586 
65 65 1 1.586 3.172 0 
66 66 1 7.93 6.344 0 
67 67 1 7.93 3.172 0 
68 68 1 1.586 6.344 0 
69 69 1 1.586 0 6.344 
70 70 1 7.93 0 3.172 
71 71 1 7.93 0 6.344 
72 72 1 1.586 0 3.172 
73 73 1 0 3.172 7.93 
74 74 1 0 6.344 1.586 
75 75 1 0 3.172 1.586 
76 76 1 0 6.344 7.93 
77 77 1 3.172 1.586 0 
78 78 1 6.344 7.93 0 
79 79 1 3.172 7.93 0 
80 80 1 6.344 1.586 0 
81 81 1 0.793 2.379 3.965 
82 82 1 0.793 8.723 7.137 
83 83 1 0.793 8.723 3.965 
84 84 1 0.793 2.379 7.137 
85 85 1 3.965 0.793 2.379 
86 86 1 7.137 0.793 8.723 
87 87 1 3.965 0.793 8.723 
88 88 1 7.137 0.793 2.379 
89 89 1 2.379 3.965 0.793 
90 90 1 8.723 7.137 0.793 
91 91 1 8.723 3.965 0.793 
92 92 1 2.379 7.137 0.793 
93 93 1 2.379 0.793 7.137 
94 94 1 8.723 0.793 3.965 
95 95 1 8.723 0.793 7.137 
96 96 1 2.379 0.793 3.965 
97 97 1 0.793 3.965 8.723 
98 98 1 0.793 7.137 2.379 
99 99 1 0.793 3.965 2.379 
100 100 1 0.793 7.137 8.723 
101 101 1 3.965 2.379 0.793 
102 102 1 7.137 8.723 0.793 
103 103 1 3.965 8.723 0.793 
104 104 1 7.137 2.379 0.793 
105 105 1 0 1.586 4.758 
106 106 1 0 7.93 4.758 
107 107 1 4.758 0 1.586 
108 108 1 4.758 0 7.93 
109 109 1 1.586 4.758 0 
110 110 1 7.93 4.758 0 
111 111 1 1.586 0 4.758 
112 112 1 7.93 0 4.758 
113 113 1 0 4.758 7.93 
114 114 1 0 4.758 1.586 
115 115 1 4.758 1.586 0 
116 116 1 4.758 7.93 0 
117 117 1 0.793 2.379 5.551 
118 118 1 0.793 8.723 5.551 
119 119 1 5.551 0.793 2.379 
120 120 1 5.551 0.793 8.723 
121 121 1 2.379 5.551 0.793 
122 122 1 8.723 5.551 0.793 
123 123 1 2.379 0.793 5.551 
124 124 1 8.723 0.793 5.551 
125 125 1 0.793 5.551 8.723 
126 126 1 0.793 5.551 2.379 
127 127 1 5.551 2.379 0.793 
128 128 1 5.551 8.723 0.793 
129 129 1 0 3.172 3.172 
130 130 1 0 6.344 6.344 
131 131 1 0 6.344 3.172 
132 132 1 0 3.172 6.344 
133 133 1 3.172 0 3.172 
134 134 1 6.344 0 6.344 
135 135 1 3.172 0 6.344 
136 136 1 6.344 0 3.172 
137 137 1 3.172 3.172 0 
138 138 1 6.344 6.344 0 
139 139 1 6.344 3.172 0 
140 140 1 3.172 6.344 0 
141 141 1 0.793 3.965 3.965 
142 142 1 0.793 7.137 7.137 
143 143 1 0.793 7.137 3.965 
144 144 1 0.793 3.965 7.137 
145 145 1 3.965 0.793 3.965 
146 146 1 7.137 0.793 7.137 
147 147 1 3.965 0.793 7.137 
148 148 1 7.137 0.793 3.965 
149 149 1 3.965 3.965 0.793 
150 150 1 7.137 7.137 0.793 
151 151 1 7.137 3.965 0.793 
152 152 1 3.965 7.137 0.793 
153 153 1 0 3.172 4.758 
154 154 1 0 6.344 4.758 
155 155 1 4.758 0 3.172 
156 156 1 4.758 0 6.344 
157 157 1 3.172 4.758 0 
158 158 1 6.344 4.758 0 
159 159 1 3.172 0 4.758 
160 160 1 6.344 0 4.758 
161 161 1 0 4.758 6.344 
162 162 1 0 4.758 3.172 
163 163 1 4.758 3.172 0 
164 164 1 4.758 6.344 0 
165 165 1 0.793 3.965 5.551 
166 166 1 0.793 7.137 5.551 
167 167 1 5.551 0.793 3.965 
168 168 1 5.551 0.793 7.137 
169 169 1 3.965 5.551 0.793 
170 170 1 7.137 5.551 0.793 
171 171 1 3.965 0.793 5.551 
172 172 1 7.137 0.793 5.551 
173 173 1 0.793 5.551 7.137 
174 174 1 0.793 5.551 3.965 
175 175 1 5.551 3.965 0.793 
176 176 1 5.551 7.137 0.793 
177 177 1 0 4.758 4.758 
178 178 1 4.758 0 4.758 
179 179 1 4.758 4.758 0 
180 180 1 0.793 5.551 5.551 
181 181 1 5.551 0.793 5.551 
182 182 1 5.551 5.551 0.793 
183 183 1 1.586 1.586 1.586 
184 184 1 7.93 7.93 7.93 
185 185 1 7.93 7.93 1.586 
186 186 1 1.586 1.586 7.93 
187 187 1 7.93 1.586 7.93 
188 188 1 1.586 7.93 1.586 
189 189 1 1.586 7.93 7.93 
190 190 1 7.93 1.586 1.586 
191 191 1 2.379 2.379 2.379 
192 192 1 8.723 8.723 8.723 
193 193 1 8.723 8.723 2.379 
194 194 1 2.379 2.379 8.723 
195 195 1 8.723 2.379 8.723 
196 196 1 2.379 8.723 2.379 
197 197 1 2.379 8.723 8.723 
198 198 1 8.723 2.379 2.379 
199 199 1 1.586 1.586 3.172 
200 200 1 7.93 7.93 6.344 
201 201 1 7.93 7.93 3.172 
202 202 1 1.586 1.586 6.344 
203 203 1 7.93 1.586 6.344 
204 204 1 1.586 7.93 3.172 
205 205 1 1.586 7.93 6.344 
206 206 1 7.93 1.586 3.172 
207 207 1 3.172 1.586 1.586 
208 208 1 6.344 7.93 7.93 
209 209 1 3.172 7.93 7.93 
210 210 1 6.344 1.586 1.586 
211 211 1 6.344 7.93 1.586 
212 212 1 3.172 1.586 7.93 
213 213 1 6.344 1.586 7.93 
214 214 1 3.172 7.93 1.586 
215 215 1 1.586 3.172 1.586 
216 216 1 7.93 6.344 7.93 
217 217 1 7.93 3.172 7.93 
218 218 1 1.586 6.344 1.586 
219 219 1 1.586 6.344 7.93 
220 220 1 7.93 3.172 1.586 
221 221 1 7.93 6.344 1.586 
222 222 1 1.586 3.172 7.93 
223 223 1 2.379 2.379 3.965 
224 224 1 8.723 8.723 7.137 
225 225 1 8.723 8.723 3.965 
226 226 1 2.379 2.379 7.137 
227 227 1 8.723 2.379 7.137 
228 228 1 2.379 8.723 3.965 
229 229 1 2.379 8.723 7.137 
230 230 1 8.723 2.379 3.965 
231 231 1 3.965 2.379 2.379 
232 232 1 7.137 8.723 8.723 
233 233 1 3.965 8.723 8.723 
234 234 1 7.137 2.379 2.379 
235 235 1 7.137 8.723 2.379 
236 236 1 3.965 2.379 8.723 
237 237 1 7.137 2.379 8.723 
238 238 1 3.965 8.723 2.379 
239 239 1 2.379 3.965 2.379 
240 240 1 8.723 7.137 8.723 
241 241 1 8.723 3.965 8.723 
242 242 1 2.379 7.137 2.379 
243 243 1 2.379 7.137 8.723 
244 244 1 8.723 3.965 2.379 
245 245 1 8.723 7.137 2.379 
246 246 1 2.379 3.965 8.723 
247 247 1 1.586 1.586 4.758 
248 248 1 7.93 7.93 4.758 
249 249 1 7.93 1.586 4.758 
250 250 1 1.586 7.93 4.758 
251 251 1 4.758 1.586 1.586 
252 252 1 4.758 7.93 7.93 
253 253 1 4.758 7.93 1.586 
254 254 1 4.758 1.586 7.93 
255 255 1 1.586 4.758 1.586 
256 256 1 7.93 4.758 7.93 
257 257 1 1.586 4.758 7.93 
258 258 1 7.93 4.758 1.586 
259 259 1 2.379 2.379 5.551 
260 260 1 8.723 8.723 5.551 
261 261 1 8.723 2.379 5.551 
262 262 1 2.379 8.723 5.551 
263 263 1 5.551 2.379 2.379 
264 264 1 5.551 8.723 8.723 
265 265 1 5.551 8.723 2.379 
266 266 1 5.551 2.379 8.723 
267 267 1 2.379 5.551 2.379 
268 268 1 8.723 5.551 8.723 
269 269 1 2.379 5.551 8.723 
270 270 1 8.723 5.551 2.379 
271 271 1 1.586 3.172 3.172 
272 272 1 7.93 6.344 6.344 
273 273 1 7.93 6.344 3.172 
274 274 1 1.586 3.172 6.344 
275 275 1 7.93 3.172 6.344 
276 276 1 1.586 6.344 3.172 
277 277 1 1.586 6.344 6.344 
278 278 1 7.93 3.172 3.172 
279 279 1 3.172 1.586 3.172 
280 280 1 6.344 7.93 6.344 
281 281 1 3.172 7.93 6.344 
282 282 1 6.344 1.586 3.172 
283 283 1 6.344 7.93 3.172 
284 284 1 3.172 1.586 6.344 
285 285 1 6.344 1.586 6.344 
286 286 1 3.172 7.93 3.172 
287 287 1 3.172 3.172 1.586 
288 288 1 6.344 6.344 7.93 
289 289 1 6.344 3.172 7.93 
290 290 1 3.172 6.344 1.586 
291 291 1 3.172 6.344 7.93 
292 292 1 6.344 3.172 1.586 
293 293 1 6.344 6.344 1.586 
294 294 1 3.172 3.172 7.93 
295 295 1 2.379 3.965 3.965 
296 296 1 8.723 7.137 7.137 
297 297 1 8.723 7.137 3.965 
298 298 1 2.379 3.965 7.137 
299 299 1 8.723 3.965 7.137 
300 300 1 2.379 7.137 3.965 
301 301 1 2.379 7.137 7.137 
302 302 1 8.723 3.965 3.965 
303 303 1 3.965 2.379 3.965 
304 304 1 7.137 8.723 7.137 
305 305 1 3.965 8.723 7.137 
306 306 1 7.137 2.379 3.965 
307 307 1 7.137 8.723 3.965 
308 308 1 3.965 2.379 7.137 
309 309 1 7.137 2.379 7.137 
310 310 1 3.965 8.723 3.965 
311 311 1 3.965 3.965 2.379 
312 312 1 7.137 7.137 8.723 
313 313 1 7.137 3.965 8.723 
314 314 1 3.965 7.137 2.379 
315 315 1 3.965 7.137 8.723 
316 316 1 7.137 3.965 2.379 
317 317 1 7.137 7.137 2.379 
318 318 1 3.965 3.965 8.723 
319 319 1 1.586 3.172 4.758 
320 320 1 7.93 6.344 4.758 
321 321 1 7.93 3.172 4.758 
322 322 1 1.586 6.344 4.758 
323 323 1 4.758 1.586 3.172 
324 324 1 4.758 7.93 6.344 
325 325 1 4.758 7.93 3.172 
326 326 1 4.758 1.586 6.344 
327 327 1 3.172 4.758 1.586 
328 328 1 6.344 4.758 7.93 
329 329 1 3.172 4.758 7.93 
330 330 1 6.344 4.758 1.586 
331 331 1 3.172 1.586 4.758 
332 332 1 6.344 7.93 4.758 
333 333 1 3.172 7.93 4.758 
334 334 1 6.344 1.586 4.758 
335 335 1 1.586 4.758 6.344 
336 336 1 7.93 4.758 3.172 
337 337 1 7.93 4.758 6.344 
338 338 1 1.586 4.758 3.172 
339 339 1 4.758 3.172 7.93 
340 340 1 4.758 6.344 1.586 
341 341 1 4.758 3.172 1.586 
342 342 1 4.758 6.344 7.93 
343 343 1 2.379 3.965 5.551 
344 344 1 8.723 7.137 5.551 
345 345 1 8.723 3.965 5.551 
346 346 1 2.379 7.137 5.551 
347 347 1 5.551 2.379 3.965 
348 348 1 5.551 8.723 7.137 
349 349 1 5.551 8.723 3.965 
350 350 1 5.551 2.379 7.137 
351 351 1 3.965 5.551 2.379 
352 352 1 7.137 5.551 8.723 
353 353 1 3.965 5.551 8.723 
354 354 1 7.137 5.551 2.379 
355 355 1 3.965 2.379 5.551 
356 356 1 7.137 8.723 5.551 
357 357 1 3.965 8.723 5.551 
358 358 1 7.137 2.379 5.551 
359 359 1 2.379 5.551 7.137 
360 360 1 8.723 5.551 3.965 
361 361 1 8.723 5.551 7.137 
362 362 1 2.379 5.551 3.965 
363 363 1 5.551 3.965 8.723 
364 364 1 5.551 7.137 2.379 
365 365 1 5.551 3.965 2.379 
366 366 1 5.551 7.137 8.723 
367 367 1 1.586 4.758 4.758 
368 368 1 7.93 4.758 4.758 
369 369 1 4.758 1.586 4.758 
370 370 1 4.758 7.93 4.758 
371 371 1 4.758 4.758 1.586 
372 372 1 4.758 4.758 7.93 
373 373 1 2.379 5.551 5.551 
374 374 1 8.723 5.551 5.551 
375 375 1 5.551 2.379 5.551 
376 376 1 5.551 8.723 5.551 
377 377 1 5.551 5.551 2.379 
378 378 1 5.551 5.551 8.723 
379 379 1 3.172 3.172 3.172 
380 380 1 6.344 6.344 6.344 
381 381 1 6.344 6.344 3.172 
382 382 1 3.172 3.172 6.344 
383 383 1 6.344 3.172 6.344 
384 384 1 3.172 6.344 3.172 
385 385 1 3.172 6.344 6.344 
386 386 1 6.344 3.172 3.172 
387 387 1 3.965 3.965 3.965 
388 388 1 7.137 7.137 7.137 
389 389 1 7.137 7.137 3.965 
390 390 1 3.965 3.965 7.137 
391 391 1 7.137 3.965 7.137 
392 392 1 3.965 7.137 3.965 
393 393 1 3.965 7.137 7.137 
394 394 1 7.137 3.965 3.965 
395 395 1 3.172 3.172 4.758 
396 396 1 6.344 6.344 4.758 
397 397 1 6.344 3.172 4.758 
398 398 1 3.172 6.344 4.758 
399 399 1 4.758 3.172 3.172 
400 400 1 4.758 6.344 6.344 
401 401 1 4.758 6.344 3.172 
402 402 1 4.758 3.172 6.344 
403 403 1 3.172 4.758 3.172 
404 404 1 6.344 4.758 6.344 
405 405 1 3.172 4.758 6.344 
406 406 1 6.344 4.758 3.172 
407 407 1 3.965 3.965 5.551 
408 408 1 7.137 7.137 5.551 
409 409 1 7.137 3.965 5.551 
410 410 1 3.965 7.137 5.551 
411 411 1 5.551 3.965 3.965 
412 412 1 5.551 7.137 7.137 
413 413 1 5.551 7.137 3.965 
414 414 1 5.551 3.965 7.137 
415 415 1 3.965 5.551 3.965 
416 416 1 7.137 5.551 7.137 
417 417 1 3.965 5.551 7.137 
418 418 1 7.137 5.551 3.965 
419 419 1 3.172 4.758 4.758 
420 420 1 6.344 4.758 4.758 
421 421 1 4.758 3.172 4.758 
422 422 1 4.758 6.344 4.758 
423 423 1 4.758 4.758 3.172 
424 424 1 4.758 4.758 6.344 
425 425 1 3.965 5.551 5.551 
426 426 1 7.137 5.551 5.551 
427 427 1 5.551 3.965 5.551 
428 428 1 5.551 7.137 5.551 
429 429 1 5.551 5.551 3.965 
430 430 1 5.551 5.551 7.137 
431 431 1 4.758 4.758 4.758 
432 432 1 5.551 5.551 5.551 
ITEM: TIMESTEP
5000
ITEM: NUMBER OF ATOMS
432
ITEM: BOX BOUNDS pp pp pp
0.63787 8.08513
0.63787 8.08513
0.63787 8.08513
ITEM: ATOMS id mol type x y z 
1 1 1 0.948173 0.948173 0.948173 
2 2 1 1.56878 1.56878 1.56878 
3 3 1 0.948173 0.948173 2.18938 
4 4 1 0.948173 0.948173 7.15422 
5 5 1 2.18938 0.948173 0.948173 
6 6 1 7.15422 0.948173 0.948173 
7 7 1 0.948173 2.18938 0.948173 
8 8 1 0.948173 7.15422 0.948173 
9 9 1 1.56878 1.56878 2.80999 
10 10 1 1.56878 1.56878 7.77483 
11 11 1 2.80999 1.56878 1.56878 
12 12 1 7.77483 1.56878 1.56878 
13 13 1 1.56878 2.80999 1.56878 
14 14 1 1.56878 7.77483 1.56878 
15 15 1 0.948173 0.948173 3.43059 
16 16 1 0.948173 0.948173 5.91301 
17 17 1 3.43059 0.948173 0.948173 
18 18 1 5.91301 0.948173 0.948173 
19 19 1 0.948173 3.43059 0.948173 
20 20 1 0.948173 5.91301 0.948173 
21 21 1 1.56878 1.56878 4.0512 
22 22 1 1.56878 1.56878 6.53362 
23 23 1 4.0512 1.56878 1.56878 
24 24 1 6.53362 1.56878 1.56878 
25 25 1 1.56878 4.0512 1.56878 
26 26 1 1.56878 6.53362 1.56878 
27 27 1 0.948173 0.948173 4.6718 
28 28 1 4.6718 0.948173 0.948173 
29 29 1 0.948173 4.6718 0.948173 
30 30 1 1.56878 1.56878 5.29241 
31 31 1 5.29241 1.56878 1.56878 
32 32 1 1.56878 5.29241 1.56878 
33 33 1 0.948173 2.18938 2.18938 
34 34 1 0.948173 7.15422 7.15422 
35 35 1 0.948173 7.15422 2.18938 
36 36 1 0.948173 2.18938 7.15422 
37 37 1 2.18938 0.948173 2.18938 
38 38 1 7.15422 0.948173 7.15422 
39 39 1 2.18938 0.948173 7.15422 
40 40 1 7.15422 0.948173 2.18938 
41 41 1 2.18938 2.18938 0.948173 
42 42 1 7.15422 7.15422 0.948173 
43 43 1 7.15422 2.18938 0.948173 
44 44 1 2.18938 7.15422 0.948173 
45 45 1 1.56878 2.80999 2.80999 
46 46 1 1.56878 7.77483 7.77483 
47 47 1 1.56878 7.77483 2.80999 
48 48 1 1.56878 2.80999 7.77483 
49 49 1 2.80999 1.56878 2.80999 
50 50 1 7.77483 1.56878 7.77483 
51 51 1 2.80999 1.56878 7.77483 
52 52 1 7.77483 1.56878 2.80999 
53 53 1 2.80999 2.80999 1.56878 
54 54 1 7.77483 7.77483 1.56878 
55 55 1 7.77483 2.80999 1.56878 
56 56 1 2.80999 7.77483 1.56878 
57 57 1 0.948173 2.18938 3.43059 
58 58 1 0.948173 7.15422 5.91301 
59 59 1 0.948173 7.15422 3.43059 
60 60 1 0.948173 2.18938 5.91301 
61 61 1 3.43059 0.948173 2.18938 
62 62 1 5.91301 0.948173 7.15422 
63 63 1 3.43059 0.948173 7.15422 
64 64 1 5.91301 0.948173 2.18938 
65 65 1 2.18938 3.43059 0.948173 
66 66 1 7.15422 5.91301 0.948173 
67 67 1 7.15422 3.43059 0.948173 
68 68 1 2.18938 5.91301 0.948173 
69 69 1 2.18938 0.948173 5.91301 
70 70 1 7.15422 0.948173 3.43059 
71 71 1 7.15422 0.948173 5.91301 
72 72 1 2.18938 0.948173 3.43059 
73 73 1 0.948173 3.43059 7.15422 
74 74 1 0.948173 5.91301 2.18938 
75 75 1 0.948173 3.43059 2.18938 
76 76 1 0.948173 5.91301 7.15422 
77 77 1 3.43059 2.18938 0.948173 
78 78 1 5.91301 7.15422 0.948173 
79 79 1 3.43059 7.15422 0.948173 
80 80 1 5.91301 2.18938 0.948173 
81 81 1 1.56878 2.80999 4.0512 
82 82 1 1.56878 7.77483 6.53362 
83 83 1 1.56878 7.77483 4.0512 
84 84 1 1.56878 2.80999 6.53362 
85 85 1 4.0512 1.56878 2.80999 
86 86 1 6.53362 1.56878 7.77483 
87 87 1 4.0512 1.56878 7.77483 
88 88 1 6.53362 1.56878 2.80999 
89 89 1 2.80999 4.0512 1.56878 
90 90 1 7.77483 6.53362 1.56878 
91 91 1 7.77483 4.0512 1.56878 
92 92 1 2.80999 6.53362 1.56878 
93 93 1 2.80999 1.56878 6.53362 
94 94 1 7.77483 1.56878 4.0512 
95 95 1 7.77483 1.56878 6.53362 
96 96 1 2.80999 1.56878 4.0512 
97 97 1 1.56878 4.0512 7.77483 
98 98 1 1.56878 6.53362 2.80999 
99 99 1 1.56878 4.0512 2.80999 
100 100 1 1.56878 6.53362 7.77483 
101 101 1 4.0512 2.80999 1.56878 
102 102 1 6.53362 7.77483 1.56878 
103 103 1 4.0512 7.77483 1.56878 
104 104 1 6.53362 2.80999 1.56878 
105 105 1 0.948173 2.18938 4.6718 
106 106 1 0.948173 7.15422 4.6718 
107 107 1 4.6718 0.948173 2.18938 
108 108 1 4.6718 0.948173 7.15422 
109 109 1 2.18938 4.6718 0.948173 
110 110 1 7.15422 4.6718 0.948173 
111 111 1 2.18938 0.948173 4.6718 
112 112 1 7.15422 0.948173 4.6718 
113 113 1 0.948173 4.6718 7.15422 
114 114 1 0.948173 4.6718 2.18938 
115 115 1 4.6718 2.18938 0.948173 
116 116 1 4.6718 7.15422 0.948173 
117 117 1 1.56878 2.80999 5.29241 
118 118 1 1.56878 7.77483 5.29241 
119 119 1 5.29241 1.56878 2.80999 
120 120 1 5.29241 1.56878 7.77483 
121 121 1 2.80999 5.29241 1.56878 
122 122 1 7.77483 5.29241 1.56878 
123 123 1 2.80999 1.56878 5.29241 
124 124 1 7.77483 1.56878 5.29241 
125 125 1 1.56878 5.29241 7.77483 
126 126 1 1.56878 5.29241 2.80999 
127 127 1 5.29241 2.80999 1.56878 
128 128 1 5.29241 7.77483 1.56878 
129 129 1 0.948173 3.43059 3.43059 
130 130 1 0.948173 5.91301 5.91301 
131 131 1 0.948173 5.91301 3.43059 
132 132 1 0.948173 3.43059 5.91301 
133 133 1 3.43059 0.948173 3.43059 
134 134 1 5.91301 0.948173 5.91301 
135 135 1 3.43059 0.948173 5.91301 
136 136 1 5.91301 0.948173 3.43059 
137 137 1 3.43059 3.43059 0.948173 
138 138 1 5.91301 5.91301 0.948173 
139 139 1 5.91301 3.43059 0.948173 
140 140 1 3.43059 5.91301 0.948173 
141 141 1 1.56878 4.0512 4.0512 
142 142 1 1.56878 6.53362 6.53362 
143 143 1 1.56878 6.53362 4.0512 
144 144 1 1.56878 4.0512 6.53362 
145 145 1 4.0512 1.56878 4.0512 
146 146 1 6.53362 1.56878 6.53362 
147 147 1 4.0512 1.56878 6.53362 
148 148 1 6.53362 1.56878 4.0512 
149 149 1 4.0512 4.0512 1.56878 
150 150 1 6.53362 6.53362 1.56878 
151 151 1 6.53362 4.0512 1.56878 
152 152 1 4.0512 6.53362 1.56878 
153 153 1 0.948173 3.43059 4.6718 
154 154 1 0.948173 5.91301 4.6718 
155 155 1 4.6718 0.948173 3.43059 
156 156 1 4.6718 0.948173 5.91301 
157 157 1 3.43059 4.6718 0.948173 
158 158 1 5.91301 4.6718 0.948173 
159 159 1 3.43059 0.948173 4.6718 
160 160 1 5.91301 0.948173 4.6718 
161 161 1 0.948173 4.6718 5.91301 
162 162 1 0.948173 4.6718 3.43059 
163 163 1 4.6718 3.43059 0.948173 
164 164 1 4.6718 5.91301 0.948173 
165 165 1 1.56878 4.0512 5.29241 
166 166 1 1.56878 6.53362 5.29241 
167 167 1 5.29241 1.56878 4.0512 
168 168 1 5.29241 1.56878 6.53362 
169 169 1 4.0512 5.29241 1.56878 
170 170 1 6.53362 5.29241 1.56878 
171 171 1 4.0512 1.56878 5.29241 
172 172 1 6.53362 1.56878 5.29241 
173 173 1 1.56878 5.29241 6.53362 
174 174 1 1.56878 5.29241 4.0512 
175 175 1 5.29241 4.0512 1.56878 
176 176 1 5.29241 6.53362 1.56878 
177 177 1 0.948173 4.6718 4.6718 
178 178 1 4.6718 0.948173 4.6718 
179 179 1 4.6718 4.6718 0.948173 
180 180 1 1.56878 5.29241 5.29241 
181 181 1 5.29241 1.56878 5.29241 
182 182 1 5.29241 5.29241 1.56878 
183 183 1 2.18938 2.18938 2.18938 
184 184 1 7.15422 7.15422 7.15422 
185 185 1 7.15422 7.15422 2.18938 
186 186 1 2.18938 2.18938 7.15422 
187 187 1 7.15422 2.18938 7.15422 
188 188 1 2.18938 7.15422 2.18938 
189 189 1 2.18938 7.15422 7.15422 
190 190 1 7.15422 2.18938 2.18938 
191 191 1 2.80999 2.80999 2.80999 
192 192 1 7.77483 7.77483 7.77483 
193 193 1 7.77483 7.77483 2.80999 
194 194 1 2.80999 2.80999 7.77483 
195 195 1 7.77483 2.80999 7.77483 
196 196 1 2.80999 7.77483 2.80999 
197 197 1 2.80999 7.77483 7.77483 
198 198 1 7.77483 2.80999 2.80999 
199 199 1 2.18938 2.18938 3.43059 
200 200 1 7.15422 7.15422 5.91301 
201 201 1 7.15422 7.15422 3.43059 
202 202 1 2.18938 2.18938 5.91301 
203 203 1 7.15422 2.18938 5.91301 
204 204 1 2.18938 7.15422 3.43059 
205 205 1 2.18938 7.15422 5.91301 
206 206 1 7.15422 2.18938 3.43059 
207 207 1 3.43059 2.18938 2.18938 
208 208 1 5.91301 7.15422 7.15422 
209 209 1 3.43059 7.15422 7.15422 
210 210 1 5.91301 2.18938 2.18938 
211 211 1 5.91301 7.15422 2.18938 
212 212 1 3.43059 2.18938 7.15422 
213 213 1 5.91301 2.18938 7.15422 
214 214 1 3.43059 7.15422 2.18938 
215 215 1 2.18938 3.43059 2.18938 
216 216 1 7.15422 5.91301 7.15422 
217 217 1 7.15422 3.43059 7.15422 
218 218 1 2.18938 5.91301 2.18938 
219 219 1 2.18938 5.91301 7.15422 
220 220 1 7.15422 3.43059 2.18938 
221 221 1 7.15422 5.91301 2.18938 
222 222 1 2.18938 3.43059 7.15422 
223 223 1 2.80999 2.80999 4.0512 
224 224 1 7.77483 7.77483 6.53362 
225 225 1 7.77483 7.77483 4.0512 
226 226 1 2.80999 2.80999 6.53362 
227 227 1 7.77483 2.80999 6.53362 
228 228 1 2.80999 7.77483 4.0512 
229 229 1 2.80999 7.77483 6.53362 
230 230 1 7.77483 2.80999 4.0512 
231 231 1 4.0512 2.80999 2.80999 
232 232 1 6.53362 7.77483 7.77483 
233 233 1 4.0512 7.77483 7.77483 
234 234 1 6.53362 2.80999 2.80999 
235 235 1 6.53362 7.77483 2.80999 
236 236 1 4.0512 2.80999 7.77483 
237 237 1 6.53362 2.80999 7.77483 
238 238 1 4.0512 7.77483 2.80999 
239 239 1 2.80999 4.0512 2.80999 
240 240 1 7.77483 6.53362 7.77483 
241 241 1 7.77483 4.0512 7.77483 
242 242 1 2.80999 6.53362 2.80999 
243 243 1 2.80999 6.53362 7.77483 
244 244 1 7.77483 4.0512 2.80999 
245 245 1 7.77483 6.53362 2.80999 
246 246 1 2.80999 4.0512 7.77483 
247 247 1 2.18938 2.18938 4.6718 
248 248 1 7.15422 7.15422 4.6718 
249 249 1 7.15422 2.18938 4.6718 
250 250 1 2.18938 7.15422 4.6718 
251 251 1 4.6718 2.18938 2.18938 
252 252 1 4.6718 7.15422 7.15422 
253 253 1 4.6718 7.15422 2.18938 
254 254 1 4.6718 2.18938 7.15422 
255 255 1 2.18938 4.6718 2.18938 
256 256 1 7.15422 4.6718 7.15422 
257 257 1 2.18938 4.6718 7.15422 
258 258 1 7.15422 4.6718 2.18938 
259 259 1 2.80999 2.80999 5.29241 
260 260 1 7.77483 7.77483 5.29241 
261 261 1 7.77483 2.80999 5.29241 
262 262 1 2.80999 7.77483 5.29241 
263 263 1 5.29241 2.80999 2.80999 
264 264 1 5.29241 7.77483 7.77483 
265 265 1 5.29241 7.77483 2.80999 
266 266 1 5.29241 2.80999 7.77483 
267 267 1 2.80999 5.29241 2.80999 
268 268 1 7.77483 5.29241 7.77483 
269 269 1 2.80999 5.29241 7.77483 
270 270 1 7.77483 5.29241 2.80999 
271 271 1 2.18938 3.43059 3.43059 
272 272 1 7.15422 5.91301 5.91301 
273 273 1 7.15422 5.91301 3.43059 
274 274 1 2.18938 3.43059 5.91301 
275 275 1 7.15422 3.43059 5.91301 
276 276 1 2.18938 5.91301 3.43059 
277 277 1 2.18938 5.91301 5.91301 
278 278 1 7.15422 3.43059 3.43059 
279 279 1 3.43059 2.18938 3.43059 
280 280 1 5.91301 7.15422 5.91301 
281 281 1 3.43059 7.15422 5.91301 
282 282 1 5.91301 2.18938 3.43059 
283 283 1 5.91301 7.15422 3.43059 
284 284 1 3.43059 2.18938 5.91301 
285 285 1 5.91301 2.18938 5.91301 
286 286 1 3.43059 7.15422 3.43059 
287 287 1 3.43059 3.43059 2.18938 
288 288 1 5.91301 5.91301 7.15422 
289 289 1 5.91301 3.43059 7.15422 
290 290 1 3.43059 5.91301 2.18938 
291 291 1 3.43059 5.91301 7.15422 
292 292 1 5.91301 3.43059 2.18938 
293 293 1 5.91301 5.91301 2.18938 
294 294 1 3.43059 3.43059 7.15422 
295 295 1 2.80999 4.0512 4.0512 
296 296 1 7.77483 6.53362 6.53362 
297 297 1 7.77483 6.53362 4.0512 
298 298 1 2.80999 4.0512 6.53362 
299 299 1 7.77483 4.0512 6.53362 
300 300 1 2.80999 6.53362 4.0512 
301 301 1 2.80999 6.53362 6.53362 
302 302 1 7.77483 4.0512 4.0512 
303 303 1 4.0512 2.80999 4.0512 
304 304 1 6.53362 7.77483 6.53362 
305 305 1 4.0512 7.77483 6.53362 
306 306 1 6.53362 2.80999 4.0512 
307 307 1 6.53362 7.77483 4.0512 
308 308 1 4.0512 2.80999 6.53362 
309 309 1 6.53362 2.80999 6.53362 
310 310 1 4.0512 7.77483 4.0512 
311 311 1 4.0512 4.0512 2.80999 
312 312 1 6.53362 6.53362 7.77483 
313 313 1 6.53362 4.0512 7.77483 
314 314 1 4.0512 6.53362 2.80999 
315 315 1 4.0512 6.53362 7.77483 
316 316 1 6.53362 4.0512 2.80999 
317 317 1 6.53362 6.53362 2.80999 
318 318 1 4.0512 4.0512 7.77483 
319 319 1 2.18938 3.43059 4.6718 
320 320 1 7.15422 5.91301 4.6718 
321 321 1 7.15422 3.43059 4.6718 
322 322 1 2.18938 5.91301 4.6718 
323 323 1 4.6718 2.18938 3.43059 
324 324 1 4.6718 7.15422 5.91301 
325 325 1 4.6718 7.15422 3.43059 
326 326 1 4.6718 2.18938 5.91301 
327 327 1 3.43059 4.6718 2.18938 
328 328 1 5.91301 4.6718 7.15422 
329 329 1 3.43059 4.6718 7.15422 
330 330 1 5.91301 4.6718 2.18938 
331 331 1 3.43059 2.18938 4.6718 
332 332 1 5.91301 7.15422 4.6718 
333 333 1 3.43059 7.15422 4.6718 
334 334 1 5.91301 2.18938 4.6718 
335 335 1 2.18938 4.6718 5.91301 
336 336 1 7.15422 4.6718 3.43059 
337 337 1 7.15422 4.6718 5.91301 
338 338 1 2.18938 4.6718 3.43059 
339 339 1 4.6718 3.43059 7.15422 
340 340 1 4.6718 5.91301 2.18938 
341 341 1 4.6718 3.43059 2.18938 
342 342 1 4.6718 5.91301 7.15422 
343 343 1 2.80999 4.0512 5.29241 
344 344 1 7.77483 6.53362 5.29241 
345 345 1 7.77483 4.0512 5.29241 
346 346 1 2.80999 6.53362 5.29241 
347 347 1 5.29241 2.80999 4.0512 
348 348 1 5.29241 7.77483 6.53362 
349 349 1 5.29241 7.77483 4.0512 
350 350 1 5.29241 2.80999 6.53362 
351 351 1 4.0512 5.29241 2.80999 
352 352 1 6.53362 5.29241 7.77483 
353 353 1 4.0512 5.29241 7.77483 
354 354 1 6.53362 5.29241 2.80999 
355 355 1 4.0512 2.80999 5.29241 
356 356 1 6.53362 7.77483 5.29241 
357 357 1 4.0512 7.77483 5.29241 
358 358 1 6.53362 2.80999 5.29241 
359 359 1 2.80999 5.29241 6.53362 
360 360 1 7.77483 5.29241 4.0512 
361 361 1 7.77483 5.29241 6.53362 
362 362 1 2.80999 5.29241 4.0512 
363 363 1 5.29241 4.0512 7.77483 
364 364 1 5.29241 6.53362 2.80999 
365 365 1 5.29241 4.0512 2.80999 
366 366 1 5.29241 6.53362 7.77483 
367 367 1 2.18938 4.6718 4.6718 
368 368 1 7.15422 4.6718 4.6718 
369 369 1 4.6718 2.18938 4.6718 
370 370 1 4.6718 7.15422 4.6718 
371 371 1 4.6718 4.6718 2.18938 
372 372 1 4.6718 4.6718 7.15422 
373 373 1 2.80999 5.29241 5.29241 
374 374 1 7.77483 5.29241 5.29241 
375 375 1 5.29241 2.80999 5.29241 
376 376 1 5.29241 7.77483 5.29241 
377 377 1 5.29241 5.29241 2.80999 
378 378 1 5.29241 5.29241 7.77483 
379 379 1 3.43059 3.43059 3.43059 
380 380 1 5.91301 5.91301 5.91301 
381 381 1 5.91301 5.91301 3.43059 
382 382 1 3.43059 3.43059 5.91301 
383 383 1 5.91301 3.43059 5.91301 
384 384 1 3.43059 5.91301 3.43059 
385 385 1 3.43059 5.91301 5.91301 
386 386 1 5.91301 3.43059 3.43059 
387 387 1 4.0512 4.0512 4.0512 
388 388 1 6.53362 6.53362 6.53362 
389 389 1 6.53362 6.53362 4.0512 
390 390 1 4.0512 4.0512 6.53362 
391 391 1 6.53362 4.0512 6.53362 
392 392 1 4.0512 6.53362 4.0512 
393 393 1 4.0512 6.53362 6.53362 
394 394 1 6.53362 4.0512 4.0512 
395 395 1 3.43059 3.43059 4.6718 
396 396 1 5.91301 5.91301 4.6718 
397 397 1 5.91301 3.43059 4.6718 
398 398 1 3.43059 5.91301 4.6718 
399 399 1 4.6718 3.43059 3.43059 
400 400 1 4.6718 5.91301 5.91301 
401 401 1 4.6718 5.91301 3.43059 
402 402 1 4.6718 3.43059 5.91301 
403 403 1 3.43059 4.6718 3.43059 
404 404 1 5.91301 4.6718 5.91301 
405 405 1 3.43059 4.6718 5.91301 
406 406 1 5.91301 4.6718 3.43059 
407 407 1 4.0512 4.0512 5.29241 
408 408 1 6.53362 6.53362 5.29241 
409 409 1 6.53362 4.0512 5.29241 
410 410 1 4.0512 6.53362 5.29241 
411 411 1 5.29241 4.0512 4.0512 
412 412 1 5.29241 6.53362 6.53362 
413 413 1 5.29241 6.53362 4.0512 
414 414 1 5.29241 4.0512 6.53362 
415 415 1 4.0512 5.29241 4.0512 
416 416 1 6.53362 5.29241 6.53362 
417 417 1 4.0512 5.29241 6.53362 
418 418 1 6.53362 5.29241 4.0512 
419 419 1 3.43059 4.6718 4.6718 
420 420 1 5.91301 4.6718 4.6718 
421 421 1 4.6718 3.43059 4.6718 
422 422 1 4.6718 5.91301 4.6718 
423 423 1 4.6718 4.6718 3.43059 
424 424 1 4.6718 4.6718 5.91301 
425 425 1 4.0512 5.29241 5.29241 
426 426 1 6.53362 5.29241 5.29241 
427 427 1 5.29241 4.0512 5.29241 
428 428 1 5.29241 6.53362 5.29241 
429 429 1 5.29241 5.29241 4.0512 
430 430 1 5.29241 5.29241 6.53362 
431 431 1 4.6718 4.6718 4.6718 
432 432 1 5.29241 5.29241 5.29241 
ITEM: TIMESTEP
10000
ITEM: NUMBER OF ATOMS
432
ITEM: BOX BOUNDS pp pp pp
0.63787 8.08513
0.63787 8.08513
0.63787 8.08513
ITEM: ATOMS id mol type x y z 
1 1 1 0.948173 0.948173 0.948173 
2 2 1 1.56878 1.56878 1.56878 
3 3 1 0.948173 0.948173 2.18938 
4 4 1 0.948173 0.948173 7.15422 
5 5 1 2.18938 0.948173 0.948173 
6 6 1 7.15422 0.948173 0.948173 
7 7 1 0.948173 2.18938 0.948173 
8 8 1 0.948173 7.15422 0.948173 
9 9 1 1.56878 1.56878 2.80999 
10 10 1 1.56878 1.56878 7.77483 
11 11 1 2.80999 1.56878 1.56878 
12 12 1 7.77483 1.56878 1.56878 
13 13 1 1.56878 2.80999 1.56878 
14 14 1 1.56878 7.77483 1.56878 
15 15 1 0.948173 0.948173 3.43059 
16 16 1 0.948173 0.948173 5.91301 
17 17 1 3.43059 0.948173 0.948173 
18 18 1 5.91301 0.948173 0.948173 
19 19 1 0.948173 3.43059 0.948173 
20 20 1 0.948173 5.91301 0.948173 
21 21 1 1.56878 1.56878 4.0512 
22 22 1 1.56878 1.56878 6.53362 
23 23 1 4.0512 1.56878 1.56878 
24 24 1 6.53362 1.56878 1.56878 
25 25 1 1.56878 4.0512 1.56878 
26 26 1 1.56878 6.53362 1.56878 
27 27 1 0.948173 0.948173 4.6718 
28 28 1 4.6718 0.948173 0.948173 
29 29 1 0.948173 4.6718 0.948173 
30 30 1 1.56878 1.56878 5.29241 
31 31 1 5.29241 1.56878 1.56878 
32 32 1 1.56878 5.29241 1.56878 
33 33 1 0.948173 2.18938 2.18938 
34 34 1 0.948173 7.15422 7.15422 
35 35 1 0.948173 7.15422 2.18938 
36 36 1 0.948173 2.18938 7.15422 
37 37 1 2.18938 0.948173 2.18938 
38 38 1 7.15422 0.948173 7.15422 
39 39 1 2.18938 0.948173 7.15422 
40 40 1 7.15422 0.948173 2.18938 
41 41 1 2.18938 2.18938 0.948173 
42 42 1 7.15422 7.15422 0.948173 
43 43 1 7.15422 2.18938 0.948173 
44 44 1 2.18938 7.15422 0.948173 
45 45 1 1.56878 2.80999 2.80999 
46 46 1 1.56878 7.77483 7.77483 
47 47 1 1.56878 7.77483 2.80999 
48 48 1 1.56878 2.80999 7.77483 
49 49 1 2.80999 1.56878 2.80999 
50 50 1 7.77483 1.56878 7.77483 
51 51 1 2.80999 1.56878 7.77483 
52 52 1 7.77483 1.56878 2.80999 
53 53 1 2.80999 2.80999 1.56878 
54 54 1 7.77483 7.77483 1.56878 
55 55 1 7.77483 2.80999 1.56878 
56 56 1 2.80999 7.77483 1.56878 
57 57 1 0.948173 2.18938 3.43059 
58 58 1 0.948173 7.15422 5.91301 
59 59 1 0.948173 7.15422 3.43059 
60 60 1 0.948173 2.18938 5.91301 
61 61 1 3.43059 0.948173 2.18938 
62 62 1 5.91301 0.948173 7.15422 
63 63 1 3.43059 0.948173 7.15422 
64 64 1 5.91301 0.948173 2.18938 
65 65 1 2.18938 3.43059 0.948173 
66 66 1 7.15422 5.91301 0.948173 
67 67 1 7.15422 3.43059 0.948173 
68 68 1 2.18938 5.91301 0.948173 
69 69 1 2.18938 0.948173 5.91301 
70 70 1 7.15422 0.948173 3.43059 
71 71 1 7.15422 0.948173 5.91301 
72 72 1 2.18938 0.948173 3.43059 
73 73 1 0.948173 3.43059 7.15422 
74 74 1 0.948173 5.91301 2.18938 
75 75 1 0.948173 3.43059 2.18938 
76 76 1 0.948173 5.91301 7.15422 
77 77 1 3.43059 2.18938 0.948173 
78 78 1 5.91301 7.15422 0.948173 
79 79 1 3.43059 7.15422 0.948173 
80 80 1 5.91301 2.18938 0.948173 
81 81 1 1.56878 2.80999 4.0512 
82 82 1 1.56878 7.77483 6.53362 
83 83 1 1.56878 7.77483 4.0512 
84 84 1 1.56878 2.80999 6.53362 
85 85 1 4.0512 1.56878 2.80999 
86 86 1 6.53362 1.56878 7.77483 
87 87 1 4.0512 1.56878 7.77483 
88 88 1 6.53362 1.56878 2.80999 
89 89 1 2.80999 4.0512 1.56878 